<?xml version="1.0"?>
<VTKFile byte_order="LittleEndian" type="UnstructuredGrid" version="0.1">
<UnstructuredGrid>
<Piece NumberOfCells="1024" NumberOfPoints="1089">
<PointData>
<DataArray Name="value0" NumberOfComponents="1" format="ascii" type="Float32">
-0.09375 -0.109375 -0.109375 -0.09375 -0.125 -0.109375 -0.125 -0.09375 -0.109375 -0.109375 -0.09375 -0.125 -0.125 -0.46875 -0.484375 -0.484375 -0.46875 -0.46875 -0.484375 -0.5 -0.5 -0.5 -0.03125 -0.015625 -0.015625 -0.03125 -0.03125 -0.015625 -0 -0 -0.5 -0.484375 -0.46875 -0.46875 -0.484375 -0.5 -0 -0 -0.015625 -0.015625 -0.03125 -0.03125 -0.0625 -0.0625 -0.046875 -0.046875 -0.046875 -0.0625 -0.046875 -0.046875 -0.0625 -0.0625 -0.34375 -0.359375 -0.359375 -0.34375 -0.40625 -0.390625 -0.390625 -0.40625 -0.40625 -0.390625 -0.375 -0.375 -0.4375 -0.4375 -0.421875 -0.421875 -0.421875 -0.4375 -0.390625 -0.40625 -0.40625 -0.390625 -0.375 -0.375 -0.125 -0.125 -0.109375 -0.109375 -0.3125 -0.3125 -0.296875 -0.296875 -0.09375 -0.09375 -0.28125 -0.28125 -0.28125 -0.296875 -0.40625 -0.390625 -0.390625 -0.40625 -0.421875 -0.421875 -0.4375 -0.4375 -0.375 -0.390625 -0.375 -0.453125 -0.453125 -0.453125 -0.4375 -0.4375 -0.4375 -0.15625 -0.140625 -0.140625 -0.15625 -0.15625 -0.140625 -0.125 -0.125 -0.125 -0.125 -0.140625 -0.15625 -0.15625 -0.140625 -0.125 -0.15625 -0.140625 -0.140625 -0.15625 -0.25 -0.25 -0.265625 -0.265625 -0.109375 -0.109375 -0.09375 -0.09375 -0.09375 -0.109375 -0.171875 -0.171875 -0.171875 -0.1875 -0.1875 -0.1875 -0.34375 -0.328125 -0.328125 -0.34375 -0.3125 -0.328125 -0.3125 -0.28125 -0.28125 -0.265625 -0.15625 -0.171875 -0.171875 -0.28125 -0.296875 -0.296875 -0.1875 -0.171875 -0.1875 -0.03125 -0.015625 -0.015625 -0.03125 -0.03125 -0.015625 -0 -0 -0 -0.28125 -0.28125 -0.296875 -0.296875 -0.40625 -0.390625 -0.390625 -0.40625 -0.28125 -0.265625 -0.265625 -0.375 -0.390625 -0.375 -0.0625 -0.078125 -0.078125 -0.078125 -0.0625 -0.296875 -0.46875 -0.484375 -0.484375 -0.46875 -0.3125 -0.3125 -0.5 -0.484375 -0.5 -0.4375 -0.421875 -0.421875 -0.4375 -0.25 -0.234375 -0.234375 -0.25 -0.1875 -0.171875 -0.171875 -0.34375 -0.328125 -0.328125 -0.34375 -0.3125 -0.25 -0.25 -0.265625 -0.265625 -0.0625 -0.0625 -0.078125 -0.078125 -0.28125 -0.28125 -0.265625 -0.09375 -0.09375 -0.078125 -0.265625 -0.25 -0.375 -0.375 -0.359375 -0.359375 -0.0625 -0.078125 -0.078125 -0.0625 -0.375 -0.359375 -0.1875 -0.171875 -0.171875 -0.1875 -0.0625 -0.078125 -0.375 -0.375 -0.390625 -0.390625 -0.40625 -0.40625 -0.40625 -0.390625 -0.5 -0.375 -0.40625 -0.421875 -0.421875 -0.40625 -0.21875 -0.234375 -0.234375 -0.21875 -0.4375 -0.421875 -0.4375 -0.25 -0.234375 -0.25 -0.28125 -0.296875 -0.296875 -0.28125 -0.46875 -0.484375 -0.484375 -0.46875 -0.5 -0.375 -0.375 -0.359375 -0.359375 -0.1875 -0.1875 -0.171875 -0.171875 -0.34375 -0.34375 -0.15625 -0.15625 -0.171875 -0.34375 -0.359375 -0.359375 -0.34375 -0.359375 -0.1875 -0.1875 -0.203125 -0.203125 -0 -0 -0.015625 -0.015625 -0.21875 -0.21875 -0.03125 -0.03125 -0.21875 -0.203125 -0.03125 -0.015625 -0.1875 -0 -0.3125 -0.328125 -0.328125 -0.3125 -0.25 -0.265625 -0.15625 -0.140625 -0.140625 -0.15625 -0.34375 -0.15625 -0.046875 -0.046875 -0.34375 -0.34375 -0.359375 -0.359375 -0.46875 -0.359375 -0.28125 -0.171875 -0.34375 -0.375 -0.1875 -0.375 -0.234375 -0.234375 -0.046875 -0.046875 -0.234375 -0.046875 -0.0625 -0.0625 -0.25 -0.25 -0.0625 -0.140625 -0.15625 -0.125 -0.140625 -0.125 -0.3125 -0.3125 -0.296875 -0.296875 -0.46875 -0.484375 -0.484375 -0.46875 -0.28125 -0.28125 -0.5 -0.5 -0.09375 -0.109375 -0.109375 -0.09375 -0.09375 -0.109375 -0.46875 -0.484375 -0.484375 -0.46875 -0.46875 -0.484375 -0.5 -0.5 -0.5 -0.3125 -0 -0 -0.015625 -0.015625 -0.34375 -0.328125 -0.328125 -0.4375 -0.3125 -0.3125 -0.328125 -0.328125 -0.140625 -0.3125 -0.3125 -0.328125 -0.125 -0.125 -0.140625 -0.25 -0.25 -0.234375 -0.0625 -0.046875 -0.21875 -0.03125 -0.21875 -0.234375 -0.03125 -0.046875 -0.03125 -0.03125 -0.046875 -0.0625 -0.0625 -0.046875 -0.359375 -0.375 -0.03125 -0.015625 -0.015625 -0.03125 -0 -0 -0.484375 -0.46875 -0.46875 -0.484375 -0.5 -0.5 -0.125 -0 -0.015625 -0.3125 -0.328125 -0.328125 -0.125 -0.140625 -0.140625 -0.34375 -0.03125 -0.03125 -0.046875 -0.15625 -0.015625 -0.015625 -0.265625 -0.453125 -0.453125 -0.34375 -0.453125 -0.25 -0.25 -0.4375 -0.4375 -0.3125 -0.296875 -0.296875 -0.125 -0.109375 -0.109375 -0.28125 -0.296875 -0.09375 -0.109375 -0.296875 -0.40625 -0.40625 -0.390625 -0.390625 -0.09375 -0.109375 -0.109375 -0.09375 -0.40625 -0.3125 -0.3125 -0.125 -0.109375 -0.125 -0.21875 -0.21875 -0.125 -0.4375 -0.4375 -0.421875 -0.421875 -0.40625 -0.40625 -0.421875 -0.4375 -0.34375 -0.359375 -0.34375 -0.453125 -0.453125 -0.09375 -0.078125 -0.078125 -0.28125 -0.09375 -0.09375 -0.390625 -0.390625 -0.09375 -0.109375 -0.109375 -0.09375 -0.03125 -0.046875 -0.046875 -0.03125 -0.046875 -0.0625 -0.0625 -0.0625 -0.3125 -0.328125 -0.21875 -0.203125 -0.203125 -0.21875 -0.40625 -0.390625 -0.21875 -0.203125 -0.09375 -0.078125 -0.078125 -0.4375 -0.453125 -0.453125 -0.40625 -0.421875 -0.421875 -0.4375 -0.421875 -0.4375 -0.0625 -0.046875 -0.046875 -0.0625 -0.390625 -0.40625 -0.203125 -0.203125 -0.21875 -0.1875 -0.265625 -0.265625 -0.078125 -0.078125 -0.28125 -0.28125 -0.265625 -0.09375 -0.1875 -0.171875 -0.171875 -0.15625 -0.34375 -0.328125 -0.34375 -0.328125 -0 -0 -0.015625 -0.015625 -0.34375 -0.359375 -0.359375 -0.359375 -0.46875 -0.46875 -0.484375 -0.484375 -0.03125 -0.03125 -0.015625 -0.375 -0.375 -0.359375 -0.375 -0.359375 -0.375 -0.015625 -0.5 -0.5 -0.484375 -0.5 -0.484375 -0.484375 -0.5 -0.390625 -0.40625 -0.390625 -0.390625 -0.40625 -0.390625 -0.421875 -0.421875 -0.421875 -0.421875 -0.421875 -0.078125 -0.078125 -0.4375 -0.4375 -0.4375 -0.421875 -0.4375 -0.40625 -0.078125 -0.078125 -0.078125 -0.421875 -0.09375 -0.09375 -0.078125 -0.078125 -0.078125 -0.078125 -0.09375 -0.4375 -0.421875 -0.25 -0.25 -0.234375 -0.234375 -0.421875 -0.421875 -0.4375 -0.234375 -0.234375 -0.25 -0.0625 -0.0625 -0.078125 -0.40625 -0.40625 -0.421875 -0.0625 -0.0625 -0.21875 -0.21875 -0.0625 -0.1875 -0.078125 -0.078125 -0.40625 -0.421875 -0.234375 -0.421875 -0.234375 -0.4375 -0.25 -0.25 -0.25 -0.234375 -0.234375 -0.21875 -0.09375 -0.09375 -0.25 -0.046875 -0.40625 -0.390625 -0.390625 -0.046875 -0.046875 -0.203125 -0.390625 -0.203125 -0.375 -0.1875 -0.1875 -0.203125 -0.21875 -0.203125 -0.390625 -0.375 -0.375 -0.375 -0.390625 -0.03125 -0.046875 -0.4375 -0.03125 -0.046875 -0.046875 -0.03125 -0.046875 -0.15625 -0.140625 -0.140625 -0.15625 -0.25 -0.15625 -0.15625 -0.140625 -0.140625 -0.03125 -0.046875 -0.046875 -0.03125 -0.15625 -0.15625 -0.140625 -0.140625 -0.140625 -0.125 -0.015625 -0.015625 -0.03125 -0.125 -0.125 -0.140625 -0.140625 -0.15625 -0.046875 -0.15625 -0.265625 -0.15625 -0.15625 -0.140625 -0.140625 -0.125 -0.015625 -0.015625 -0.125 -0.171875 -0.171875 -0.0625 -0.171875 -0.171875 -0.28125 -0.15625 -0.171875 -0.171875 -0.375 -0.375 -0.1875 -0.1875 -0.5 -0.484375 -0.484375 -0.5 -0.1875 -0.171875 -0.1875 -0.1875 -0.1875 -0.171875 -0.1875 -0.1875 -0.171875 -0.203125 -0.203125 -0.390625 -0.09375 -0.109375 -0.453125 -0.453125 -0.453125 -0.109375 -0.109375 -0.109375 -0 -0 -0.109375 -0.46875 -0.453125 -0.46875 -0.453125 -0.453125 -0.46875 -0.453125 -0.453125 -0.453125 -0.453125 -0.453125 -0.265625 -0.265625 -0.453125 -0.453125 -0.453125 -0.453125 -0.265625 -0.25 -0.5 -0.484375 -0.171875 -0.46875 -0.453125 -0.453125 -0.46875 -0.265625 -0.28125 -0.28125 -0.265625 -0.4375 -0.453125 -0.4375 -0.25 -0.265625 -0.25 -0.15625 -0.171875 -0.171875 -0.15625 -0.28125 -0.46875 -0.28125 -0.265625 -0.265625 -0.28125 -0.46875 -0.453125 -0.453125 -0.46875 -0.140625 -0.140625 -0.4375 -0.25 -0.453125 -0.4375 -0.265625 -0.25 -0.03125 -0.046875 -0.046875 -0.03125 -0.21875 -0.234375 -0.234375 -0.21875 -0.234375 -0.21875 -0.453125 -0.265625 -0.46875 -0.28125 -0.375 -0.28125 -0.46875 -0.453125 -0.46875 -0.234375 -0.234375 -0.0625 -0.0625 -0.25 -0.25 -0.328125 -0.328125 -0.140625 -0.140625 -0.484375 -0.296875 -0.296875 -0.1875 -0.484375 -0.484375 -0.296875 -0.296875 -0.296875 -0.5 -0.5 -0.296875 -0.1875 -0.1875 -0.078125 -0.0625 -0.171875 -0.484375 -0.484375 -0.296875 -0.296875 -0.3125 -0.34375 -0.34375 -0.15625 -0.15625 -0.140625 -0.3125 -0.5 -0.5 -0.1875 -0.5 -0.3125 -0.234375 -0.328125 -0.46875 -0 -0.328125 -0.015625 -0.359375 -0.359375 -0.5 -0.5 -0.484375 -0.171875 -0 -0.34375 -0.15625 -0.171875 -0.15625 -0.375 -0.265625 -0.171875 -0.484375 -0.328125 -0.25 -0.234375 -0.234375 -0.234375 -0.5 -0.21875 -0.21875 -0.21875 -0.03125 -0.21875 -0.234375 -0.21875 -0.109375 -0.125 -0.21875 -0 -0.015625 -0.203125 -0.203125 -0.203125 -0.09375 -0.328125 -0.328125 -0.03125 -0.203125 -0.203125 -0 -0 -0.203125 -0.21875 -0.203125 -0.203125 -0.125 -0.125 -0.421875 -0.421875 -0.234375 -0.234375 -0.125 -0.421875 -0.421875 -0.234375 -0.46875 -0.109375 -0.40625 -0.390625 -0.390625 -0.40625 -0.203125 -0.203125 -0.21875 -0.109375 -0.40625 -0.21875 -0 -0.140625 -0.140625 -0.5 -0 -0.265625 -0.34375 -0.40625 -0.21875 -0.21875 -0.09375 -0.390625 -0.1875 -0.203125 -0.203125 -0.203125 -0.375 -0.1875 -0.3125 -0.296875 -0.296875 -0.3125 -0.203125 -0.125 -0.125 -0.3125 -0.296875 -0.296875 -0.3125 -0.28125 -0.28125 -0.296875 -0.3125 -0.265625 -0.078125 -0.265625 -0.359375 -0.359375 -0.359375 -0.359375 -0.359375 -0.359375 -0.34375 -0.34375 -0.34375 -0.359375 -0.359375 -0.3125 -0.328125 -0.328125 -0.328125 -0.328125 -0.34375 -0.328125 -0.34375 -0.328125 -0.125 -0.3125 -0.328125 -0.171875 -0.359375 -0.25 -0.234375 -0.234375 -0 -0.203125 -0.203125 -0 -0.015625 -0 -0.203125 -0.21875 -0.21875 -0.015625 -0 -0.109375 -0.375 -0.359375 -0.359375 -0.265625 -0.265625 -0.46875 -0.28125 -0.28125 -0.5 -0.484375 -0.3125 -0.3125 -0.296875 -0.296875 -0.328125 -0.328125 -0.203125 -0 -0.015625 -0.015625 -0 -0.203125 -0 -0.015625 -0.078125 -0.078125 -0.28125 -0.265625 -0.09375 -0.078125 -0.0625 -0.078125 -0.296875 -0.296875 -0.109375 -0.109375 -0.109375 -0.265625 -0.34375 -0.046875 -0.34375 
</DataArray>
</PointData>
<CellData>
<DataArray Name="ProcLoad" NumberOfComponents="1" format="ascii" type="Float32">
0 0 0 0 0 0 0 0 0 0 0 0 0 0 0 0 0 0 0 0 0 0 0 0 0 0 0 0 0 0 0 0 0 0 0 0 0 0 0 0 0 0 0 0 0 0 0 0 0 0 0 0 0 0 0 0 0 0 0 0 0 0 0 0 0 0 0 0 0 0 0 0 0 0 0 0 0 0 0 0 0 0 0 0 0 0 0 0 0 0 0 0 0 0 0 0 0 0 0 0 0 0 0 0 0 0 0 0 0 0 0 0 0 0 0 0 0 0 0 0 0 0 0 0 0 0 0 0 0 0 0 0 0 0 0 0 0 0 0 0 0 0 0 0 0 0 0 0 0 0 0 0 0 0 0 0 0 0 0 0 0 0 0 0 0 0 0 0 0 0 0 0 0 0 0 0 0 0 0 0 0 0 0 0 0 0 0 0 0 0 0 0 0 0 0 0 0 0 0 0 0 0 0 0 0 0 0 0 0 0 0 0 0 0 0 0 0 0 0 0 0 0 0 0 0 0 0 0 0 0 0 0 0 0 0 0 0 0 0 0 0 0 0 0 0 0 0 0 0 0 0 0 0 0 0 0 0 0 0 0 0 0 0 0 0 0 0 0 0 0 0 0 0 0 0 0 0 0 0 0 0 0 0 0 0 0 0 0 0 0 0 0 0 0 0 0 0 0 0 0 0 0 0 0 0 0 0 0 0 0 0 0 0 0 0 0 0 0 0 0 0 0 0 0 0 0 0 0 0 0 0 0 0 0 0 0 0 0 0 0 0 0 0 0 0 0 0 0 0 0 0 0 0 0 0 0 0 0 0 0 0 0 0 0 0 0 0 0 0 0 0 0 0 0 0 0 0 0 0 0 0 0 0 0 0 0 0 0 0 0 0 0 0 0 0 0 0 0 0 0 0 0 0 0 0 0 0 0 0 0 0 0 0 0 0 0 0 0 0 0 0 0 0 0 0 0 0 0 0 0 0 0 0 0 0 0 0 0 0 0 0 0 0 0 0 0 0 0 0 0 0 0 0 0 0 0 0 0 0 0 0 0 0 0 0 0 0 0 0 0 0 0 0 0 0 0 0 0 0 0 0 0 0 0 0 0 0 0 0 0 0 0 0 0 0 0 0 0 0 0 0 0 0 0 0 0 0 0 0 0 0 0 0 0 0 0 0 0 0 0 0 0 0 0 0 0 0 0 0 0 0 0 0 0 0 0 0 0 0 0 0 0 0 0 0 0 0 0 0 0 0 0 0 0 0 0 0 0 0 0 0 0 0 0 0 0 0 0 0 0 0 0 0 0 0 0 0 0 0 0 0 0 0 0 0 0 0 0 0 0 0 0 0 0 0 0 0 0 0 0 0 0 0 0 0 0 0 0 0 0 0 0 0 0 0 0 0 0 0 0 0 0 0 0 0 0 0 0 0 0 0 0 0 0 0 0 0 0 0 0 0 0 0 0 0 0 0 0 0 0 0 0 0 0 0 0 0 0 0 0 0 0 0 0 0 0 0 0 0 0 0 0 0 0 0 0 0 0 0 0 0 0 0 0 0 0 0 0 0 0 0 0 0 0 0 0 0 0 0 0 0 0 0 0 0 0 0 0 0 0 0 0 0 0 0 0 0 0 0 0 0 0 0 0 0 0 0 0 0 0 0 0 0 0 0 0 0 0 0 0 0 0 0 0 0 0 0 0 0 0 0 0 0 0 0 0 0 0 0 0 0 0 0 0 0 0 0 0 0 0 0 0 0 0 0 0 0 0 0 0 0 0 0 0 0 0 0 0 0 0 0 0 0 0 0 0 0 0 0 0 0 0 0 0 0 0 0 0 0 0 0 0 0 0 0 0 0 0 0 0 0 0 0 0 0 0 0 0 0 0 0 0 0 0 0 0 0 0 0 0 0 0 0 0 0 0 0 0 0 0 0 0 0 0 0 0 0 0 0 0 0 0 0 0 0 0 0 0 0 0 0 0 0 0 0 0 0 0 0 0 0 0 0 0 0 0 0 0 0 0 0 0 0 0 0 0 0 0 0 0 0 0 0 0 0 0 0 0 0 0 0 0 0 0 0 0 0 0 0 0 0 0 0 0 0 0 0 0 0 0 0 0 0 0 0 0 0 0 0 0 0 0 0 0 0 0 0 0 0 0 0 0 0 0 0 0 0 0 0 0 0 0 0 0 0 0 0 0 0 0 0 0 0 0 0 0 0 0 0 0 0 0 0 0 0 0 0 0 0 0 0 0 0 0 0 0 0 0 0 0 0 0 0 0 0 0 0 0 0 0 0 0 0 0 0 0 0 0 0 0 0 0 0 0 
</DataArray>
<DataArray Name="Subdomain" NumberOfComponents="1" format="ascii" type="Float32">
1 1 1 1 1 1 1 1 1 1 1 1 1 1 1 1 1 1 1 1 1 1 1 1 1 1 1 1 1 1 1 1 1 1 1 1 1 1 1 1 1 1 1 1 1 1 1 1 1 1 1 1 1 1 1 1 1 1 1 1 1 1 1 1 1 1 1 1 1 1 1 1 1 1 1 1 1 1 1 1 1 1 1 1 1 1 1 1 1 1 1 1 1 1 1 1 1 1 1 1 1 1 1 1 1 1 1 1 1 1 1 1 1 1 1 1 1 1 1 1 1 1 1 1 1 1 1 1 1 1 1 1 1 1 1 1 1 1 1 1 1 1 1 1 1 1 1 1 1 1 1 1 1 1 1 1 1 1 1 1 1 1 1 1 1 1 1 1 1 1 1 1 1 1 1 1 1 1 1 1 1 1 1 1 1 1 1 1 1 1 1 1 1 1 1 1 1 1 1 1 1 1 1 1 1 1 1 1 1 1 1 1 1 1 1 1 1 1 1 1 1 1 1 1 1 1 1 1 1 1 1 1 1 1 1 1 1 1 1 1 1 1 1 1 1 1 1 1 1 1 1 1 1 1 1 1 1 1 1 1 1 1 1 1 1 1 1 1 1 1 1 1 1 1 1 1 1 1 1 1 1 1 1 1 1 1 1 1 1 1 1 1 1 1 1 1 1 1 1 1 1 1 1 1 1 1 1 1 1 1 1 1 1 1 1 1 1 1 1 1 1 1 1 1 1 1 1 1 1 1 1 1 1 1 1 1 1 1 1 1 1 1 1 1 1 1 1 1 1 1 1 1 1 1 1 1 1 1 1 1 1 1 1 1 1 1 1 1 1 1 1 1 1 1 1 1 1 1 1 1 1 1 1 1 1 1 1 1 1 1 1 1 1 1 1 1 1 1 1 1 1 1 1 1 1 1 1 1 1 1 1 1 1 1 1 1 1 1 1 1 1 1 1 1 1 1 1 1 1 1 1 1 1 1 1 1 1 1 1 1 1 1 1 1 1 1 1 1 1 1 1 1 1 1 1 1 1 1 1 1 1 1 1 1 1 1 1 1 1 1 1 1 1 1 1 1 1 1 1 1 1 1 1 1 1 1 1 1 1 1 1 1 1 1 1 1 1 1 1 1 1 1 1 1 1 1 1 1 1 1 1 1 1 1 1 1 1 1 1 1 1 1 1 1 1 1 1 1 1 1 1 1 1 1 1 1 1 1 1 1 1 1 1 1 1 1 1 1 1 1 1 1 1 1 1 1 1 1 1 1 1 1 1 1 1 1 1 1 1 1 1 1 1 1 1 1 1 1 1 1 1 1 1 1 1 1 1 1 1 1 1 1 1 1 1 1 1 1 1 1 1 1 1 1 1 1 1 1 1 1 1 1 1 1 1 1 1 1 1 1 1 1 1 1 1 1 1 1 1 1 1 1 1 1 1 1 1 1 1 1 1 1 1 1 1 1 1 1 1 1 1 1 1 1 1 1 1 1 1 1 1 1 1 1 1 1 1 1 1 1 1 1 1 1 1 1 1 1 1 1 1 1 1 1 1 1 1 1 1 1 1 1 1 1 1 1 1 1 1 1 1 1 1 1 1 1 1 1 1 1 1 1 1 1 1 1 1 1 1 1 1 1 1 1 1 1 1 1 1 1 1 1 1 1 1 1 1 1 1 1 1 1 1 1 1 1 1 1 1 1 1 1 1 1 1 1 1 1 1 1 1 1 1 1 1 1 1 1 1 1 1 1 1 1 1 1 1 1 1 1 1 1 1 1 1 1 1 1 1 1 1 1 1 1 1 1 1 1 1 1 1 1 1 1 1 1 1 1 1 1 1 1 1 1 1 1 1 1 1 1 1 1 1 1 1 1 1 1 1 1 1 1 1 1 1 1 1 1 1 1 1 1 1 1 1 1 1 1 1 1 1 1 1 1 1 1 1 1 1 1 1 1 1 1 1 1 1 1 1 1 1 1 1 1 1 1 1 1 1 1 1 1 1 1 1 1 1 1 1 1 1 1 1 1 1 1 1 1 1 1 1 1 1 1 1 1 1 1 1 1 1 1 1 1 1 1 1 1 1 1 1 1 1 1 1 1 1 1 1 1 1 1 1 1 1 1 1 1 1 1 1 1 1 1 1 1 1 1 1 1 1 1 1 1 1 1 1 1 1 1 1 1 1 1 1 1 1 1 1 1 1 1 1 1 1 1 1 1 1 1 1 1 1 1 1 1 1 1 1 1 1 1 1 1 1 1 1 1 1 1 1 1 1 1 1 1 1 1 1 1 1 1 1 1 1 1 1 1 1 1 1 1 1 1 
</DataArray>
</CellData>
<Points>
<DataArray NumberOfComponents="3" format="ascii" type="Float64">
0.21875 0.09375 0 0.21875 0.109375 0 0.203125 0.109375 0 0.203125 0.09375 0 0.1875 0.125 0 0.1875 0.109375 0 0.203125 0.125 0 0.25 0.09375 0 0.25 0.109375 0 0.234375 0.109375 0 0.234375 0.09375 0 0.25 0.125 0 0.234375 0.125 0 0.4375 0.46875 0 0.4375 0.484375 0 0.421875 0.484375 0 0.421875 0.46875 0 0.40625 0.46875 0 0.40625 0.484375 0 0.40625 0.5 0 0.421875 0.5 0 0.4375 0.5 0 0.1875 0.03125 0 0.1875 0.015625 0 0.203125 0.015625 0 0.203125 0.03125 0 0.21875 0.03125 0 0.21875 0.015625 0 0.1875 0 0 0.203125 0 0 0.390625 0.5 0 0.390625 0.484375 0 0.390625 0.46875 0 0.375 0.46875 0 0.375 0.484375 0 0.375 0.5 0 0.15625 0 0 0.171875 0 0 0.171875 0.015625 0 0.15625 0.015625 0 0.15625 0.03125 0 0.171875 0.03125 0 0.21875 0.0625 0 0.203125 0.0625 0 0.203125 0.046875 0 0.21875 0.046875 0 0.1875 0.046875 0 0.1875 0.0625 0 0.171875 0.046875 0 0.15625 0.046875 0 0.15625 0.0625 0 0.171875 0.0625 0 0.125 0.34375 0 0.125 0.359375 0 0.109375 0.359375 0 0.109375 0.34375 0 0.4375 0.40625 0 0.4375 0.390625 0 0.453125 0.390625 0 0.453125 0.40625 0 0.46875 0.40625 0 0.46875 0.390625 0 0.46875 0.375 0 0.453125 0.375 0 0.46875 0.4375 0 0.453125 0.4375 0 0.453125 0.421875 0 0.46875 0.421875 0 0.4375 0.421875 0 0.4375 0.4375 0 0.484375 0.390625 0 0.484375 0.40625 0 0.5 0.40625 0 0.5 0.390625 0 0.5 0.375 0 0.484375 0.375 0 0.28125 0.125 0 0.265625 0.125 0 0.265625 0.109375 0 0.28125 0.109375 0 0.03125 0.3125 0 0.015625 0.3125 0 0.015625 0.296875 0 0.03125 0.296875 0 0.28125 0.09375 0 0.265625 0.09375 0 0.03125 0.28125 0 0.015625 0.28125 0 0 0.28125 0 0 0.296875 0 0.15625 0.40625 0 0.15625 0.390625 0 0.171875 0.390625 0 0.171875 0.40625 0 0.5 0.421875 0 0.484375 0.421875 0 0.484375 0.4375 0 0.5 0.4375 0 0.15625 0.375 0 0.140625 0.390625 0 0.140625 0.375 0 0.375 0.453125 0 0.390625 0.453125 0 0.40625 0.453125 0 0.40625 0.4375 0 0.390625 0.4375 0 0.375 0.4375 0 0 0.15625 0 0 0.140625 0 0.015625 0.140625 0 0.015625 0.15625 0 0.03125 0.15625 0 0.03125 0.140625 0 0.03125 0.125 0 0.015625 0.125 0 0 0.125 0 0.046875 0.125 0 0.046875 0.140625 0 0.046875 0.15625 0 0.0625 0.15625 0 0.0625 0.140625 0 0.0625 0.125 0 0.375 0.15625 0 0.375 0.140625 0 0.390625 0.140625 0 0.390625 0.15625 0 0.21875 0.25 0 0.234375 0.25 0 0.234375 0.265625 0 0.21875 0.265625 0 0.015625 0.109375 0 0.03125 0.109375 0 0.03125 0.09375 0 0.015625 0.09375 0 0 0.09375 0 0 0.109375 0 0.0625 0.171875 0 0.046875 0.171875 0 0.03125 0.171875 0 0.03125 0.1875 0 0.046875 0.1875 0 0.0625 0.1875 0 0.40625 0.34375 0 0.40625 0.328125 0 0.421875 0.328125 0 0.421875 0.34375 0 0.4375 0.3125 0 0.4375 0.328125 0 0.421875 0.3125 0 0.25 0.28125 0 0.234375 0.28125 0 0.25 0.265625 0 0.40625 0.15625 0 0.40625 0.171875 0 0.390625 0.171875 0 0.21875 0.28125 0 0.234375 0.296875 0 0.21875 0.296875 0 0.375 0.1875 0 0.375 0.171875 0 0.390625 0.1875 0 0 0.03125 0 0 0.015625 0 0.015625 0.015625 0 0.015625 0.03125 0 0.03125 0.03125 0 0.03125 0.015625 0 0.03125 0 0 0.015625 0 0 0 0 0 0.375 0.28125 0 0.390625 0.28125 0 0.390625 0.296875 0 0.375 0.296875 0 0.21875 0.40625 0 0.21875 0.390625 0 0.234375 0.390625 0 0.234375 0.40625 0 0.40625 0.28125 0 0.390625 0.265625 0 0.40625 0.265625 0 0.25 0.375 0 0.25 0.390625 0 0.234375 0.375 0 0.234375 0.0625 0 0.234375 0.078125 0 0.21875 0.078125 0 0.25 0.078125 0 0.25 0.0625 0 0.40625 0.296875 0 0.15625 0.46875 0 0.15625 0.484375 0 0.140625 0.484375 0 0.140625 0.46875 0 0.375 0.3125 0 0.390625 0.3125 0 0.125 0.5 0 0.125 0.484375 0 0.140625 0.5 0 0.0625 0.4375 0 0.0625 0.421875 0 0.078125 0.421875 0 0.078125 0.4375 0 0.3125 0.25 0 0.3125 0.234375 0 0.328125 0.234375 0 0.328125 0.25 0 0.015625 0.1875 0 0.015625 0.171875 0 0 0.171875 0 0.375 0.34375 0 0.375 0.328125 0 0.390625 0.328125 0 0.390625 0.34375 0 0.40625 0.3125 0 0.03125 0.25 0 0.046875 0.25 0 0.046875 0.265625 0 0.03125 0.265625 0 0.28125 0.0625 0 0.296875 0.0625 0 0.296875 0.078125 0 0.28125 0.078125 0 0.0625 0.28125 0 0.046875 0.28125 0 0.0625 0.265625 0 0.3125 0.09375 0 0.296875 0.09375 0 0.3125 0.078125 0 0.203125 0.265625 0 0.203125 0.25 0 0.0625 0.375 0 0.046875 0.375 0 0.046875 0.359375 0 0.0625 0.359375 0 0.46875 0.0625 0 0.46875 0.078125 0 0.453125 0.078125 0 0.453125 0.0625 0 0.03125 0.375 0 0.03125 0.359375 0 0.28125 0.1875 0 0.28125 0.171875 0 0.296875 0.171875 0 0.296875 0.1875 0 0.4375 0.0625 0 0.4375 0.078125 0 0.28125 0.375 0 0.296875 0.375 0 0.296875 0.390625 0 0.28125 0.390625 0 0.28125 0.40625 0 0.296875 0.40625 0 0.3125 0.40625 0 0.3125 0.390625 0 0.15625 0.5 0 0.3125 0.375 0 0.125 0.40625 0 0.125 0.421875 0 0.109375 0.421875 0 0.109375 0.40625 0 0.375 0.21875 0 0.375 0.234375 0 0.359375 0.234375 0 0.359375 0.21875 0 0.09375 0.4375 0 0.09375 0.421875 0 0.109375 0.4375 0 0.34375 0.25 0 0.34375 0.234375 0 0.359375 0.25 0 0.4375 0.28125 0 0.4375 0.296875 0 0.421875 0.296875 0 0.421875 0.28125 0 0.1875 0.46875 0 0.1875 0.484375 0 0.171875 0.484375 0 0.171875 0.46875 0 0.171875 0.5 0 0.09375 0.375 0 0.078125 0.375 0 0.078125 0.359375 0 0.09375 0.359375 0 0.34375 0.1875 0 0.328125 0.1875 0 0.328125 0.171875 0 0.34375 0.171875 0 0.0625 0.34375 0 0.078125 0.34375 0 0.3125 0.15625 0 0.328125 0.15625 0 0.3125 0.171875 0 0.5 0.34375 0 0.5 0.359375 0 0.484375 0.359375 0 0.484375 0.34375 0 0.46875 0.359375 0 0.09375 0.1875 0 0.109375 0.1875 0 0.109375 0.203125 0 0.09375 0.203125 0 0.34375 0 0 0.359375 0 0 0.359375 0.015625 0 0.34375 0.015625 0 0.09375 0.21875 0 0.109375 0.21875 0 0.34375 0.03125 0 0.359375 0.03125 0 0.125 0.21875 0 0.125 0.203125 0 0.375 0.03125 0 0.375 0.015625 0 0.125 0.1875 0 0.375 0 0 0.3125 0.3125 0 0.3125 0.328125 0 0.296875 0.328125 0 0.296875 0.3125 0 0.1875 0.25 0 0.1875 0.265625 0 0.34375 0.15625 0 0.34375 0.140625 0 0.359375 0.140625 0 0.359375 0.15625 0 0.046875 0.34375 0 0.296875 0.15625 0 0.453125 0.046875 0 0.46875 0.046875 0 0.28125 0.34375 0 0.296875 0.34375 0 0.296875 0.359375 0 0.28125 0.359375 0 0.125 0.46875 0 0.3125 0.359375 0 0.203125 0.28125 0 0.359375 0.171875 0 0.09375 0.34375 0 0.109375 0.375 0 0.359375 0.1875 0 0.125 0.375 0 0.125 0.234375 0 0.109375 0.234375 0 0.375 0.046875 0 0.359375 0.046875 0 0.09375 0.234375 0 0.34375 0.046875 0 0.34375 0.0625 0 0.359375 0.0625 0 0.125 0.25 0 0.109375 0.25 0 0.375 0.0625 0 0.078125 0.140625 0 0.078125 0.15625 0 0.09375 0.125 0 0.09375 0.140625 0 0.078125 0.125 0 0.46875 0.3125 0 0.453125 0.3125 0 0.453125 0.296875 0 0.46875 0.296875 0 0.21875 0.46875 0 0.21875 0.484375 0 0.203125 0.484375 0 0.203125 0.46875 0 0.46875 0.28125 0 0.453125 0.28125 0 0.1875 0.5 0 0.203125 0.5 0 0.09375 0.09375 0 0.09375 0.109375 0 0.078125 0.109375 0 0.078125 0.09375 0 0.0625 0.09375 0 0.0625 0.109375 0 0.5 0.46875 0 0.5 0.484375 0 0.484375 0.484375 0 0.484375 0.46875 0 0.46875 0.46875 0 0.46875 0.484375 0 0.46875 0.5 0 0.484375 0.5 0 0.5 0.5 0 0 0.3125 0 0.40625 0 0 0.421875 0 0 0.421875 0.015625 0 0.40625 0.015625 0 0.265625 0.34375 0 0.265625 0.328125 0 0.28125 0.328125 0 0.125 0.4375 0 0.28125 0.3125 0 0.265625 0.3125 0 0.078125 0.328125 0 0.09375 0.328125 0 0.328125 0.140625 0 0.0625 0.3125 0 0.078125 0.3125 0 0.0625 0.328125 0 0.3125 0.125 0 0.328125 0.125 0 0.3125 0.140625 0 0.09375 0.25 0 0.078125 0.25 0 0.078125 0.234375 0 0.328125 0.0625 0 0.328125 0.046875 0 0.078125 0.21875 0 0.328125 0.03125 0 0.0625 0.21875 0 0.0625 0.234375 0 0.3125 0.03125 0 0.3125 0.046875 0 0.46875 0.03125 0 0.484375 0.03125 0 0.484375 0.046875 0 0.5 0.0625 0 0.484375 0.0625 0 0.5 0.046875 0 0.328125 0.359375 0 0.328125 0.375 0 0.125 0.03125 0 0.125 0.015625 0 0.140625 0.015625 0 0.140625 0.03125 0 0.140625 0 0 0.125 0 0 0.359375 0.484375 0 0.359375 0.46875 0 0.34375 0.46875 0 0.34375 0.484375 0 0.34375 0.5 0 0.359375 0.5 0 0.21875 0.125 0 0.390625 0 0 0.390625 0.015625 0 0.046875 0.3125 0 0.046875 0.328125 0 0.03125 0.328125 0 0.296875 0.125 0 0.296875 0.140625 0 0.28125 0.140625 0 0.03125 0.34375 0 0.4375 0.03125 0 0.453125 0.03125 0 0.4375 0.046875 0 0.28125 0.15625 0 0.453125 0.015625 0 0.46875 0.015625 0 0.375 0.265625 0 0.125 0.453125 0 0.140625 0.453125 0 0.3125 0.34375 0 0.15625 0.453125 0 0.40625 0.25 0 0.390625 0.25 0 0.15625 0.4375 0 0.140625 0.4375 0 0.09375 0.3125 0 0.078125 0.296875 0 0.09375 0.296875 0 0.34375 0.125 0 0.328125 0.109375 0 0.34375 0.109375 0 0.078125 0.28125 0 0.0625 0.296875 0 0.328125 0.09375 0 0.3125 0.109375 0 0.25 0.296875 0 0.09375 0.40625 0 0.078125 0.40625 0 0.078125 0.390625 0 0.09375 0.390625 0 0.5 0.09375 0 0.5 0.109375 0 0.484375 0.109375 0 0.484375 0.09375 0 0.0625 0.40625 0 0.21875 0.3125 0 0.234375 0.3125 0 0.46875 0.125 0 0.46875 0.109375 0 0.484375 0.125 0 0.34375 0.21875 0 0.328125 0.21875 0 0.5 0.125 0 0.34375 0.4375 0 0.328125 0.4375 0 0.328125 0.421875 0 0.34375 0.421875 0 0.34375 0.40625 0 0.328125 0.40625 0 0.3125 0.421875 0 0.3125 0.4375 0 0.34375 0.34375 0 0.34375 0.359375 0 0.328125 0.34375 0 0.171875 0.453125 0 0.1875 0.453125 0 0.1875 0.09375 0 0.1875 0.078125 0 0.203125 0.078125 0 0.1875 0.28125 0 0.4375 0.09375 0 0.453125 0.09375 0 0.046875 0.390625 0 0.03125 0.390625 0 0.40625 0.09375 0 0.40625 0.109375 0 0.390625 0.109375 0 0.390625 0.09375 0 0.0625 0.03125 0 0.0625 0.046875 0 0.046875 0.046875 0 0.046875 0.03125 0 0.03125 0.046875 0 0.03125 0.0625 0 0.046875 0.0625 0 0.0625 0.0625 0 0.25 0.3125 0 0.25 0.328125 0 0.40625 0.21875 0 0.40625 0.203125 0 0.421875 0.203125 0 0.421875 0.21875 0 0.1875 0.40625 0 0.1875 0.390625 0 0.4375 0.21875 0 0.4375 0.203125 0 0.375 0.09375 0 0.375 0.078125 0 0.390625 0.078125 0 0.421875 0.4375 0 0.421875 0.453125 0 0.4375 0.453125 0 0.25 0.40625 0 0.25 0.421875 0 0.234375 0.421875 0 0.21875 0.4375 0 0.21875 0.421875 0 0.234375 0.4375 0 0.015625 0.0625 0 0.015625 0.046875 0 0 0.046875 0 0 0.0625 0 0.125 0.390625 0 0.140625 0.40625 0 0.375 0.203125 0 0.390625 0.203125 0 0.390625 0.21875 0 0.40625 0.1875 0 0.109375 0.265625 0 0.09375 0.265625 0 0.359375 0.078125 0 0.34375 0.078125 0 0.125 0.28125 0 0.109375 0.28125 0 0.125 0.265625 0 0.359375 0.09375 0 0.078125 0.1875 0 0.078125 0.171875 0 0.09375 0.171875 0 0.09375 0.15625 0 0.4375 0.34375 0 0.453125 0.328125 0 0.453125 0.34375 0 0.46875 0.328125 0 0.0625 0 0 0.078125 0 0 0.078125 0.015625 0 0.0625 0.015625 0 0.359375 0.34375 0 0.359375 0.359375 0 0.40625 0.359375 0 0.390625 0.359375 0 0.28125 0.46875 0 0.296875 0.46875 0 0.296875 0.484375 0 0.28125 0.484375 0 0.09375 0.03125 0 0.078125 0.03125 0 0.09375 0.015625 0 0.375 0.375 0 0.359375 0.375 0 0.375 0.359375 0 0.40625 0.375 0 0.421875 0.359375 0 0.421875 0.375 0 0.046875 0.015625 0 0.3125 0.5 0 0.296875 0.5 0 0.3125 0.484375 0 0.25 0.5 0 0.25 0.484375 0 0.265625 0.484375 0 0.265625 0.5 0 0.265625 0.390625 0 0.265625 0.40625 0 0.34375 0.390625 0 0.359375 0.390625 0 0.359375 0.40625 0 0.328125 0.390625 0 0.296875 0.421875 0 0.265625 0.421875 0 0.28125 0.421875 0 0.375 0.421875 0 0.390625 0.421875 0 0 0.078125 0 0.015625 0.078125 0 0.296875 0.4375 0 0.25 0.4375 0 0.265625 0.4375 0 0.359375 0.421875 0 0.359375 0.4375 0 0.375 0.40625 0 0.0625 0.078125 0 0.078125 0.078125 0 0.03125 0.078125 0 0.40625 0.421875 0 0.125 0.09375 0 0.109375 0.09375 0 0.109375 0.078125 0 0.125 0.078125 0 0.09375 0.078125 0 0.140625 0.078125 0 0.140625 0.09375 0 0.203125 0.4375 0 0.203125 0.421875 0 0.46875 0.25 0 0.453125 0.25 0 0.453125 0.234375 0 0.46875 0.234375 0 0.15625 0.421875 0 0.171875 0.421875 0 0.171875 0.4375 0 0.40625 0.234375 0 0.421875 0.234375 0 0.421875 0.25 0 0.09375 0.0625 0 0.078125 0.0625 0 0.046875 0.078125 0 0.40625 0.40625 0 0.421875 0.40625 0 0.421875 0.421875 0 0.125 0.0625 0 0.140625 0.0625 0 0.46875 0.21875 0 0.453125 0.21875 0 0.109375 0.0625 0 0 0.1875 0 0.171875 0.078125 0 0.15625 0.078125 0 0.203125 0.40625 0 0.1875 0.421875 0 0.4375 0.234375 0 0.140625 0.421875 0 0.390625 0.234375 0 0.1875 0.4375 0 0.4375 0.25 0 0.5 0.25 0 0.484375 0.25 0 0.484375 0.234375 0 0.5 0.234375 0 0.484375 0.21875 0 0.046875 0.09375 0 0.15625 0.09375 0 0.375 0.25 0 0.078125 0.046875 0 0.390625 0.40625 0 0.390625 0.390625 0 0.40625 0.390625 0 0.109375 0.046875 0 0.125 0.046875 0 0.453125 0.203125 0 0.203125 0.390625 0 0.46875 0.203125 0 0.21875 0.375 0 0.46875 0.1875 0 0.484375 0.1875 0 0.484375 0.203125 0 0.5 0.21875 0 0.5 0.203125 0 0.375 0.390625 0 0.390625 0.375 0 0.34375 0.375 0 0.4375 0.375 0 0.421875 0.390625 0 0.109375 0.03125 0 0.09375 0.046875 0 0.28125 0.4375 0 0.25 0.03125 0 0.25 0.046875 0 0.234375 0.046875 0 0.234375 0.03125 0 0.140625 0.046875 0 0.15625 0.15625 0 0.15625 0.140625 0 0.171875 0.140625 0 0.171875 0.15625 0 0.0625 0.25 0 0.21875 0.15625 0 0.203125 0.15625 0 0.203125 0.140625 0 0.21875 0.140625 0 0.28125 0.03125 0 0.28125 0.046875 0 0.265625 0.046875 0 0.265625 0.03125 0 0.125 0.15625 0 0.109375 0.15625 0 0.109375 0.140625 0 0.125 0.140625 0 0.1875 0.140625 0 0.171875 0.125 0 0.28125 0.015625 0 0.296875 0.015625 0 0.296875 0.03125 0 0.125 0.125 0 0.140625 0.125 0 0.140625 0.140625 0 0.234375 0.140625 0 0.1875 0.15625 0 0.296875 0.046875 0 0.140625 0.15625 0 0.078125 0.265625 0 0.25 0.15625 0 0.234375 0.15625 0 0.25 0.140625 0 0.265625 0.140625 0 0.15625 0.125 0 0.25 0.015625 0 0.265625 0.015625 0 0.109375 0.125 0 0.21875 0.171875 0 0.203125 0.171875 0 0.3125 0.0625 0 0.171875 0.171875 0 0.15625 0.171875 0 0.09375 0.28125 0 0.265625 0.15625 0 0.265625 0.171875 0 0.25 0.171875 0 0.1875 0.375 0 0.203125 0.375 0 0.4375 0.1875 0 0.453125 0.1875 0 0.03125 0.5 0 0.03125 0.484375 0 0.046875 0.484375 0 0.046875 0.5 0 0.1875 0.1875 0 0.1875 0.171875 0 0.203125 0.1875 0 0.15625 0.1875 0 0.140625 0.1875 0 0.140625 0.171875 0 0.25 0.1875 0 0.234375 0.1875 0 0.234375 0.171875 0 0.359375 0.203125 0 0.34375 0.203125 0 0.109375 0.390625 0 0.171875 0.09375 0 0.171875 0.109375 0 0.5 0.453125 0 0.484375 0.453125 0 0.453125 0.453125 0 0.125 0.109375 0 0.109375 0.109375 0 0.15625 0.109375 0 0.28125 0 0 0.265625 0 0 0.140625 0.109375 0 0.453125 0.46875 0 0.46875 0.453125 0 0.3125 0.46875 0 0.296875 0.453125 0 0.3125 0.453125 0 0.265625 0.46875 0 0.265625 0.453125 0 0.28125 0.453125 0 0.359375 0.453125 0 0.328125 0.453125 0 0.25 0.453125 0 0.46875 0.265625 0 0.453125 0.265625 0 0.21875 0.453125 0 0.203125 0.453125 0 0.34375 0.453125 0 0.234375 0.453125 0 0.015625 0.265625 0 0.015625 0.25 0 0.453125 0.5 0 0.453125 0.484375 0 0.125 0.171875 0 0 0.46875 0 0 0.453125 0 0.015625 0.453125 0 0.015625 0.46875 0 0.265625 0.265625 0 0.265625 0.28125 0 0.359375 0.28125 0 0.359375 0.265625 0 0.03125 0.4375 0 0.03125 0.453125 0 0.015625 0.4375 0 0.28125 0.25 0 0.28125 0.265625 0 0.265625 0.25 0 0.4375 0.15625 0 0.4375 0.171875 0 0.421875 0.171875 0 0.421875 0.15625 0 0.28125 0.28125 0 0.03125 0.46875 0 0.3125 0.28125 0 0.3125 0.265625 0 0.328125 0.265625 0 0.328125 0.28125 0 0.0625 0.46875 0 0.0625 0.453125 0 0.078125 0.453125 0 0.078125 0.46875 0 0.40625 0.140625 0 0.421875 0.140625 0 0 0.4375 0 0.25 0.25 0 0.046875 0.453125 0 0.046875 0.4375 0 0.296875 0.265625 0 0.296875 0.25 0 0.40625 0.03125 0 0.40625 0.046875 0 0.390625 0.046875 0 0.390625 0.03125 0 0.15625 0.21875 0 0.15625 0.234375 0 0.140625 0.234375 0 0.140625 0.21875 0 0.046875 0.234375 0 0.046875 0.21875 0 0.09375 0.453125 0 0.34375 0.265625 0 0.046875 0.46875 0 0.296875 0.28125 0 0.171875 0.375 0 0.34375 0.28125 0 0.09375 0.46875 0 0.109375 0.453125 0 0.109375 0.46875 0 0.1875 0.234375 0 0.203125 0.234375 0 0.40625 0.0625 0 0.390625 0.0625 0 0.15625 0.25 0 0.140625 0.25 0 0.234375 0.328125 0 0.21875 0.328125 0 0.484375 0.140625 0 0.46875 0.140625 0 0.0625 0.484375 0 0.3125 0.296875 0 0.296875 0.296875 0 0.421875 0.1875 0 0.015625 0.484375 0 0 0.484375 0 0.265625 0.296875 0 0.359375 0.296875 0 0.34375 0.296875 0 0 0.5 0 0.015625 0.5 0 0.046875 0.296875 0 0.21875 0.1875 0 0.171875 0.1875 0 0.265625 0.078125 0 0.265625 0.0625 0 0.109375 0.171875 0 0.09375 0.484375 0 0.078125 0.484375 0 0.328125 0.296875 0 0.28125 0.296875 0