<?xml version="1.0"?>
<VTKFile byte_order="LittleEndian" type="UnstructuredGrid" version="0.1">
<UnstructuredGrid>
<Piece NumberOfCells="1024" NumberOfPoints="1089">
<PointData>
<DataArray Name="value0" NumberOfComponents="1" format="ascii" type="Float32">
-0.53125 -0.546875 -0.546875 -0.53125 -0.53125 -0.546875 -0.5625 -0.5625 -0.5625 -0.96875 -0.953125 -0.953125 -0.96875 -0.9375 -0.953125 -0.9375 -0.53125 -0.515625 -0.515625 -0.53125 -0.515625 -0.5 -0.5 -0.5 -0.96875 -0.984375 -0.984375 -0.984375 -1 -1 -1 -0.5 -0.515625 -0.515625 -0.5 -0.96875 -0.984375 -0.984375 -0.96875 -1 -0.953125 -0.9375 -0.953125 -0.9375 -0.90625 -0.890625 -0.890625 -0.90625 -0.90625 -0.890625 -0.875 -0.875 -0.90625 -0.921875 -0.921875 -0.90625 -0.921875 -0.9375 -0.9375 -0.5 -0.5 -0.515625 -0.515625 -0.53125 -0.53125 -1 -0.984375 -0.96875 -0.96875 -0.984375 -0.953125 -0.953125 -0.9375 -0.9375 -0.9375 -0.9375 -0.9375 -0.921875 -0.921875 -0.90625 -0.90625 -0.84375 -0.84375 -0.828125 -0.828125 -0.8125 -0.8125 -0.828125 -0.96875 -0.984375 -0.984375 -0.96875 -0.96875 -0.984375 -1 -1 -1 -0.921875 -0.921875 -0.90625 -0.921875 -0.921875 -0.90625 -0.90625 -0.921875 -0.9375 -0.9375 -0.9375 -0.59375 -0.609375 -0.609375 -0.59375 -0.78125 -0.796875 -0.796875 -0.78125 -0.625 -0.609375 -0.625 -0.8125 -0.796875 -0.8125 -0.953125 -0.953125 -0.953125 -0.90625 -0.890625 -0.890625 -0.90625 -0.875 -0.890625 -0.875 -1 -0.875 -0.875 -0.890625 -0.890625 -0.90625 -0.90625 -0.890625 -0.875 -0.53125 -0.546875 -0.546875 -0.53125 -0.71875 -0.734375 -0.734375 -0.71875 -0.5625 -0.546875 -0.5625 -0.75 -0.734375 -0.75 -0.90625 -0.890625 -0.90625 -0.875 -0.875 -0.890625 -0.90625 -0.890625 -0.875 -0.875 -0.6875 -0.6875 -0.671875 -0.671875 -0.65625 -0.65625 -0.671875 -0.6875 -0.6875 -0.671875 -0.671875 -0.96875 -0.984375 -0.984375 -0.96875 -0.78125 -0.796875 -0.796875 -0.78125 -1 -0.984375 -1 -0.8125 -0.796875 -0.8125 -0.59375 -0.609375 -0.609375 -0.59375 -0.78125 -0.796875 -0.796875 -0.78125 -0.625 -0.625 -0.65625 -0.65625 -0.671875 -0.6875 -0.6875 -0.671875 -0.71875 -0.734375 -0.734375 -0.71875 -0.53125 -0.546875 -0.546875 -0.53125 -0.75 -0.75 -0.5625 -0.5625 -0.84375 -0.859375 -0.859375 -0.875 -0.875 -0.859375 -0.8125 -0.8125 -0.796875 -0.796875 -0.6875 -0.6875 -0.671875 -0.671875 -0.96875 -0.984375 -0.984375 -0.96875 -0.78125 -0.78125 -0.703125 -0.703125 -1 -1 -0.8125 -0.53125 -0.515625 -0.515625 -0.53125 -0.5 -0.5 -0.5625 -0.5625 -0.546875 -0.546875 -0.75 -0.765625 -0.765625 -0.75 -0.875 -0.875 -0.859375 -0.859375 -0.6875 -0.671875 -0.96875 -0.84375 -0.65625 -0.640625 -0.640625 -0.65625 -0.8125 -0.625 -0.640625 -0.625 -0.625 -0.640625 -0.640625 -0.65625 -0.640625 -0.75 -0.625 -0.890625 -0.890625 -0.875 -0.875 -0.6875 -0.5625 -0.578125 -0.578125 -0.78125 -0.765625 -0.765625 -0.59375 -0.75 -0.765625 -0.75 -0.578125 -0.5625 -0.5625 -0.578125 -0.578125 -0.875 -0.859375 -0.859375 -0.875 -0.78125 -0.765625 -0.765625 -0.78125 -0.75 -0.765625 -0.75 -0.875 -0.859375 -0.859375 -0.875 -0.75 -0.75 -0.765625 -0.765625 -0.78125 -0.796875 -0.796875 -0.9375 -0.9375 -0.953125 -0.953125 -0.75 -0.765625 -0.78125 -0.96875 -0.78125 -0.765625 -0.75 -0.5 -0.5 -0.515625 -0.515625 -0.53125 -0.53125 -0.515625 -0.625 -0.640625 -0.640625 -0.625 -0.8125 -0.828125 -0.828125 -0.8125 -0.59375 -0.765625 -0.765625 -0.78125 -0.5625 -0.578125 -0.75 -0.765625 -0.75 -0.71875 -0.71875 -0.90625 -0.890625 -0.890625 -0.90625 -0.703125 -1 -0.875 -0.875 -0.5625 -0.578125 -0.890625 -0.875 -1 -0.984375 -0.984375 -1 -0.5625 -0.546875 -0.75 -0.734375 -0.53125 -0.53125 -0.71875 -0.71875 -0.53125 -0.546875 -0.71875 -0.734375 -0.5625 -0.75 -0.875 -0.875 -0.859375 -0.6875 -0.6875 -0.671875 -0.671875 -0.65625 -0.859375 -0.671875 -0.875 -0.6875 -0.640625 -0.640625 -0.625 -0.625 -0.65625 -0.640625 -0.65625 -0.84375 -0.828125 -0.84375 -0.9375 -0.9375 -0.953125 -0.953125 -0.65625 -0.84375 -0.953125 -0.75 -0.75 -0.765625 -0.765625 -0.78125 -0.765625 -0.9375 -0.75 -0.765625 -0.75 -0.75 -0.796875 -0.796875 -0.96875 -0.8125 -0.8125 -0.8125 -0.921875 -0.921875 -0.921875 -0.78125 -0.796875 -0.796875 -0.59375 -0.609375 -0.609375 -0.8125 -0.625 -0.921875 -0.921875 -0.9375 -0.9375 -0.96875 -0.984375 -0.984375 -0.96875 -0.78125 -0.796875 -0.796875 -0.78125 -1 -0.8125 -1 -0.8125 -0.84375 -0.859375 -0.859375 -0.84375 -0.859375 -0.65625 -0.765625 -0.953125 -0.765625 -0.953125 -0.65625 -0.640625 -0.640625 -0.75 -0.75 -0.9375 -0.9375 -0.96875 -0.984375 -0.984375 -0.96875 -1 -0.984375 -1 -0.6875 -0.671875 -0.796875 -0.78125 -0.984375 -0.96875 -0.96875 -0.984375 -0.8125 -0.796875 -0.8125 -1 -1 -0.671875 -0.65625 -0.78125 -0.765625 -0.765625 -0.78125 -0.65625 -0.671875 -1 -0.984375 -0.96875 -0.96875 -0.984375 -1 -0.9375 -0.953125 -0.953125 -0.921875 -0.8125 -0.796875 -0.8125 -0.78125 -0.796875 -0.796875 -0.78125 -0.59375 -0.609375 -0.609375 -0.59375 -0.8125 -0.625 -0.9375 -0.921875 -0.78125 -0.765625 -0.765625 -0.78125 -0.90625 -0.890625 -0.890625 -0.90625 -0.890625 -0.578125 -0.765625 -0.5625 -0.578125 -0.5625 -0.75 -0.765625 -0.75 -0.875 -0.859375 -0.859375 -0.875 -0.953125 -0.953125 -0.90625 -0.921875 -0.921875 -0.859375 -0.859375 -0.875 -0.875 -0.859375 -0.859375 -0.515625 -0.5 -0.6875 -0.703125 -0.703125 -0.6875 -0.5 -0.6875 -0.703125 -0.703125 -0.6875 -0.84375 -0.84375 -0.828125 -0.828125 -0.84375 -0.828125 -0.828125 -0.84375 -0.84375 -0.84375 -0.828125 -0.828125 -0.859375 -0.859375 -0.859375 -0.515625 -0.703125 -0.5 -0.515625 -0.515625 -0.5 -0.6875 -0.703125 -0.703125 -0.6875 -0.84375 -0.84375 -0.859375 -0.5 -0.515625 -0.5 -0.6875 -0.703125 -0.6875 -0.6875 -0.671875 -0.671875 -0.84375 -0.828125 -0.828125 -0.828125 -0.671875 -0.671875 -0.6875 -0.6875 -0.671875 -0.859375 -0.859375 -0.84375 -0.9375 -0.9375 -0.953125 -0.75 -0.765625 -0.65625 -0.65625 -0.640625 -0.640625 -0.65625 -0.640625 -0.640625 -0.65625 -1 -0.984375 -0.984375 -1 -0.90625 -0.890625 -0.71875 -0.703125 -0.890625 -0.703125 -0.625 -0.625 -0.640625 -0.640625 -0.53125 -0.515625 -0.515625 -0.53125 -0.625 -0.625 -0.625 -0.625 -0.984375 -0.96875 -0.96875 -0.96875 -0.65625 -0.65625 -0.640625 -0.640625 -0.65625 -1 -0.984375 -0.65625 -0.671875 -0.671875 -0.671875 -0.671875 -0.671875 -0.65625 -0.640625 -1 -1 -0.984375 -0.8125 -0.8125 -0.828125 -0.65625 -0.734375 -0.734375 -0.734375 -0.734375 -0.75 -0.71875 -0.734375 -0.734375 -0.71875 -0.71875 -0.734375 -0.71875 -0.8125 -0.734375 -0.71875 -0.703125 -0.703125 -0.625 -0.625 -0.625 -0.640625 -0.96875 -0.828125 -0.71875 -0.703125 -0.703125 -0.71875 -0.703125 -0.703125 -0.71875 -0.703125 -0.6875 -0.875 -0.875 -0.890625 -0.890625 -0.6875 -0.6875 -0.703125 -0.6875 -0.703125 -0.6875 -0.703125 -0.90625 -0.625 -0.625 -0.640625 -0.640625 -0.984375 -1 -0.796875 -1 -0.796875 -0.921875 -0.71875 -0.734375 -0.734375 -0.640625 -0.65625 -0.921875 -0.921875 -0.734375 -0.734375 -0.65625 -0.640625 -0.640625 -0.65625 -0.90625 -0.71875 -0.828125 -0.828125 -0.8125 -0.640625 -0.625 -0.65625 -0.640625 -0.640625 -0.65625 -0.921875 -0.71875 -0.734375 -0.734375 -0.921875 -0.734375 -0.84375 -0.828125 -0.84375 -0.65625 -0.640625 -0.65625 -0.671875 -0.671875 -0.84375 -0.84375 -0.671875 -0.84375 -0.84375 -0.671875 -0.671875 -0.671875 -0.6875 -0.859375 -0.671875 -0.6875 -0.75 -0.53125 -0.53125 -0.546875 -0.546875 -0.5625 -0.5625 -0.5625 -0.546875 -0.71875 -0.53125 -0.546875 -0.546875 -0.53125 -0.546875 -0.53125 -0.546875 -0.546875 -0.9375 -0.5625 -0.5625 -0.5625 -0.890625 -0.78125 -0.78125 -0.765625 -0.59375 -0.59375 -0.578125 -0.578125 -0.765625 -0.578125 -0.578125 -0.515625 -0.515625 -0.5625 -0.890625 -0.5625 -0.546875 -0.5625 -0.78125 -0.59375 -0.59375 -0.578125 -0.59375 -0.546875 -0.578125 -0.5625 -0.546875 -0.5625 -0.625 -0.96875 -0.625 -0.625 -0.734375 -0.734375 -0.625 -0.625 -0.734375 -0.734375 -0.546875 -0.546875 -0.546875 -0.734375 -0.734375 -0.796875 -0.828125 -0.828125 -0.5 -0.515625 -0.5 -0.96875 -0.78125 -0.78125 -0.71875 -0.703125 -0.96875 -0.953125 -0.78125 -0.765625 -0.71875 -0.515625 -0.515625 -0.859375 -0.84375 -0.5625 -0.5625 -0.546875 -0.546875 -0.546875 -0.84375 -0.546875 -0.578125 -0.578125 -0.703125 -0.5 -0.5 -0.5 -0.5 -0.515625 -0.765625 -0.5 -0.703125 -0.5 -0.515625 -0.71875 -0.53125 -0.71875 -0.703125 -0.703125 -0.71875 -0.53125 -0.515625 -0.515625 -0.53125 -0.8125 -0.796875 -0.796875 -0.8125 -0.5 -0.5 -0.515625 -0.515625 -0.5 -0.546875 -0.828125 -0.53125 -0.53125 -0.53125 -0.609375 -0.609375 -0.609375 -0.609375 -0.796875 -0.609375 -0.796875 -0.609375 -0.59375 -0.59375 -0.578125 -0.6875 -0.578125 -0.59375 -0.59375 -0.578125 -0.609375 -0.609375 -0.609375 -0.609375 -0.609375 -0.8125 -0.515625 -0.515625 -0.53125 -0.578125 -0.59375 -0.59375 -0.578125 -0.59375 -0.578125 -0.578125 -0.59375 -0.578125 -0.578125 -0.59375 -0.59375 -0.578125 -0.59375 -0.609375 -0.609375 -0.609375 -0.609375 -0.609375 -0.5 -0.953125 -0.953125 -0.59375 -0.609375 -0.609375 -0.59375 -0.953125 -0.953125 -0.953125 -0.59375 -0.609375 -0.59375 -0.609375 -0.609375 -0.59375 -0.609375 -0.515625 -0.5 -0.5 -0.640625 -0.9375 -0.921875 -0.921875 -0.9375 -0.734375 -0.734375 -0.921875 -0.921875 -0.71875 -0.90625 -0.90625 -0.71875 -0.90625 -0.921875 -0.90625 -0.921875 -0.625 -0.71875 -0.90625 -0.890625 -0.703125 -0.703125 -0.890625 -0.890625 -0.703125 -0.890625 -0.890625 -0.703125 -0.890625 -0.578125 -0.578125 -0.578125 -1 -0.578125 -0.578125 -0.5625 -0.59375 -0.578125 -0.5625 -0.9375 -0.953125 -0.953125 -0.96875 -0.84375 -0.953125 -0.984375 -1 -0.75 -0.734375 -0.9375 -0.921875 -0.71875 -0.734375 -0.90625 -0.921875 -0.71875 -0.90625 -0.90625 -0.921875 -0.75 -0.734375 -0.9375 -0.71875 -0.703125 -0.890625 -0.828125 -0.828125 -0.828125 -0.8125 -0.828125 -0.84375 -0.828125 -0.84375 -0.84375 -0.84375 -0.828125 -0.53125 -0.828125 -0.828125 -0.828125 -0.828125 -0.859375 -0.859375 -0.859375 -0.859375 -0.859375 -0.84375 -0.8125 -0.8125 -0.546875 -0.625 -0.609375 -0.609375 -0.796875 -0.59375 -0.78125 -0.59375 -0.765625 -0.546875 -0.5 -0.65625 -0.953125 -0.953125 -0.5 -0.796875 -0.796875 
</DataArray>
</PointData>
<CellData>
<DataArray Name="ProcLoad" NumberOfComponents="1" format="ascii" type="Float32">
1 1 1 1 1 1 1 1 1 1 1 1 1 1 1 1 1 1 1 1 1 1 1 1 1 1 1 1 1 1 1 1 1 1 1 1 1 1 1 1 1 1 1 1 1 1 1 1 1 1 1 1 1 1 1 1 1 1 1 1 1 1 1 1 1 1 1 1 1 1 1 1 1 1 1 1 1 1 1 1 1 1 1 1 1 1 1 1 1 1 1 1 1 1 1 1 1 1 1 1 1 1 1 1 1 1 1 1 1 1 1 1 1 1 1 1 1 1 1 1 1 1 1 1 1 1 1 1 1 1 1 1 1 1 1 1 1 1 1 1 1 1 1 1 1 1 1 1 1 1 1 1 1 1 1 1 1 1 1 1 1 1 1 1 1 1 1 1 1 1 1 1 1 1 1 1 1 1 1 1 1 1 1 1 1 1 1 1 1 1 1 1 1 1 1 1 1 1 1 1 1 1 1 1 1 1 1 1 1 1 1 1 1 1 1 1 1 1 1 1 1 1 1 1 1 1 1 1 1 1 1 1 1 1 1 1 1 1 1 1 1 1 1 1 1 1 1 1 1 1 1 1 1 1 1 1 1 1 1 1 1 1 1 1 1 1 1 1 1 1 1 1 1 1 1 1 1 1 1 1 1 1 1 1 1 1 1 1 1 1 1 1 1 1 1 1 1 1 1 1 1 1 1 1 1 1 1 1 1 1 1 1 1 1 1 1 1 1 1 1 1 1 1 1 1 1 1 1 1 1 1 1 1 1 1 1 1 1 1 1 1 1 1 1 1 1 1 1 1 1 1 1 1 1 1 1 1 1 1 1 1 1 1 1 1 1 1 1 1 1 1 1 1 1 1 1 1 1 1 1 1 1 1 1 1 1 1 1 1 1 1 1 1 1 1 1 1 1 1 1 1 1 1 1 1 1 1 1 1 1 1 1 1 1 1 1 1 1 1 1 1 1 1 1 1 1 1 1 1 1 1 1 1 1 1 1 1 1 1 1 1 1 1 1 1 1 1 1 1 1 1 1 1 1 1 1 1 1 1 1 1 1 1 1 1 1 1 1 1 1 1 1 1 1 1 1 1 1 1 1 1 1 1 1 1 1 1 1 1 1 1 1 1 1 1 1 1 1 1 1 1 1 1 1 1 1 1 1 1 1 1 1 1 1 1 1 1 1 1 1 1 1 1 1 1 1 1 1 1 1 1 1 1 1 1 1 1 1 1 1 1 1 1 1 1 1 1 1 1 1 1 1 1 1 1 1 1 1 1 1 1 1 1 1 1 1 1 1 1 1 1 1 1 1 1 1 1 1 1 1 1 1 1 1 1 1 1 1 1 1 1 1 1 1 1 1 1 1 1 1 1 1 1 1 1 1 1 1 1 1 1 1 1 1 1 1 1 1 1 1 1 1 1 1 1 1 1 1 1 1 1 1 1 1 1 1 1 1 1 1 1 1 1 1 1 1 1 1 1 1 1 1 1 1 1 1 1 1 1 1 1 1 1 1 1 1 1 1 1 1 1 1 1 1 1 1 1 1 1 1 1 1 1 1 1 1 1 1 1 1 1 1 1 1 1 1 1 1 1 1 1 1 1 1 1 1 1 1 1 1 1 1 1 1 1 1 1 1 1 1 1 1 1 1 1 1 1 1 1 1 1 1 1 1 1 1 1 1 1 1 1 1 1 1 1 1 1 1 1 1 1 1 1 1 1 1 1 1 1 1 1 1 1 1 1 1 1 1 1 1 1 1 1 1 1 1 1 1 1 1 1 1 1 1 1 1 1 1 1 1 1 1 1 1 1 1 1 1 1 1 1 1 1 1 1 1 1 1 1 1 1 1 1 1 1 1 1 1 1 1 1 1 1 1 1 1 1 1 1 1 1 1 1 1 1 1 1 1 1 1 1 1 1 1 1 1 1 1 1 1 1 1 1 1 1 1 1 1 1 1 1 1 1 1 1 1 1 1 1 1 1 1 1 1 1 1 1 1 1 1 1 1 1 1 1 1 1 1 1 1 1 1 1 1 1 1 1 1 1 1 1 1 1 1 1 1 1 1 1 1 1 1 1 1 1 1 1 1 1 1 1 1 1 1 1 1 1 1 1 1 1 1 1 1 1 1 1 1 1 1 1 1 1 1 1 1 1 1 1 1 1 1 1 1 1 1 1 1 1 1 1 1 1 1 1 1 1 1 1 1 1 1 1 1 1 1 1 1 1 1 1 1 1 1 1 1 1 1 1 1 1 1 1 1 1 1 1 1 1 1 1 1 1 1 1 1 1 1 1 1 1 1 1 1 1 1 1 1 1 1 1 1 1 1 
</DataArray>
<DataArray Name="Subdomain" NumberOfComponents="1" format="ascii" type="Float32">
1 1 1 1 1 1 1 1 1 1 1 1 1 1 1 1 1 1 1 1 1 1 1 1 1 1 1 1 1 1 1 1 1 1 1 1 1 1 1 1 1 1 1 1 1 1 1 1 1 1 1 1 1 1 1 1 1 1 1 1 1 1 1 1 1 1 1 1 1 1 1 1 1 1 1 1 1 1 1 1 1 1 1 1 1 1 1 1 1 1 1 1 1 1 1 1 1 1 1 1 1 1 1 1 1 1 1 1 1 1 1 1 1 1 1 1 1 1 1 1 1 1 1 1 1 1 1 1 1 1 1 1 1 1 1 1 1 1 1 1 1 1 1 1 1 1 1 1 1 1 1 1 1 1 1 1 1 1 1 1 1 1 1 1 1 1 1 1 1 1 1 1 1 1 1 1 1 1 1 1 1 1 1 1 1 1 1 1 1 1 1 1 1 1 1 1 1 1 1 1 1 1 1 1 1 1 1 1 1 1 1 1 1 1 1 1 1 1 1 1 1 1 1 1 1 1 1 1 1 1 1 1 1 1 1 1 1 1 1 1 1 1 1 1 1 1 1 1 1 1 1 1 1 1 1 1 1 1 1 1 1 1 1 1 1 1 1 1 1 1 1 1 1 1 1 1 1 1 1 1 1 1 1 1 1 1 1 1 1 1 1 1 1 1 1 1 1 1 1 1 1 1 1 1 1 1 1 1 1 1 1 1 1 1 1 1 1 1 1 1 1 1 1 1 1 1 1 1 1 1 1 1 1 1 1 1 1 1 1 1 1 1 1 1 1 1 1 1 1 1 1 1 1 1 1 1 1 1 1 1 1 1 1 1 1 1 1 1 1 1 1 1 1 1 1 1 1 1 1 1 1 1 1 1 1 1 1 1 1 1 1 1 1 1 1 1 1 1 1 1 1 1 1 1 1 1 1 1 1 1 1 1 1 1 1 1 1 1 1 1 1 1 1 1 1 1 1 1 1 1 1 1 1 1 1 1 1 1 1 1 1 1 1 1 1 1 1 1 1 1 1 1 1 1 1 1 1 1 1 1 1 1 1 1 1 1 1 1 1 1 1 1 1 1 1 1 1 1 1 1 1 1 1 1 1 1 1 1 1 1 1 1 1 1 1 1 1 1 1 1 1 1 1 1 1 1 1 1 1 1 1 1 1 1 1 1 1 1 1 1 1 1 1 1 1 1 1 1 1 1 1 1 1 1 1 1 1 1 1 1 1 1 1 1 1 1 1 1 1 1 1 1 1 1 1 1 1 1 1 1 1 1 1 1 1 1 1 1 1 1 1 1 1 1 1 1 1 1 1 1 1 1 1 1 1 1 1 1 1 1 1 1 1 1 1 1 1 1 1 1 1 1 1 1 1 1 1 1 1 1 1 1 1 1 1 1 1 1 1 1 1 1 1 1 1 1 1 1 1 1 1 1 1 1 1 1 1 1 1 1 1 1 1 1 1 1 1 1 1 1 1 1 1 1 1 1 1 1 1 1 1 1 1 1 1 1 1 1 1 1 1 1 1 1 1 1 1 1 1 1 1 1 1 1 1 1 1 1 1 1 1 1 1 1 1 1 1 1 1 1 1 1 1 1 1 1 1 1 1 1 1 1 1 1 1 1 1 1 1 1 1 1 1 1 1 1 1 1 1 1 1 1 1 1 1 1 1 1 1 1 1 1 1 1 1 1 1 1 1 1 1 1 1 1 1 1 1 1 1 1 1 1 1 1 1 1 1 1 1 1 1 1 1 1 1 1 1 1 1 1 1 1 1 1 1 1 1 1 1 1 1 1 1 1 1 1 1 1 1 1 1 1 1 1 1 1 1 1 1 1 1 1 1 1 1 1 1 1 1 1 1 1 1 1 1 1 1 1 1 1 1 1 1 1 1 1 1 1 1 1 1 1 1 1 1 1 1 1 1 1 1 1 1 1 1 1 1 1 1 1 1 1 1 1 1 1 1 1 1 1 1 1 1 1 1 1 1 1 1 1 1 1 1 1 1 1 1 1 1 1 1 1 1 1 1 1 1 1 1 1 1 1 1 1 1 1 1 1 1 1 1 1 1 1 1 1 1 1 1 1 1 1 1 1 1 1 1 1 1 1 1 1 1 1 1 1 1 1 1 1 1 1 1 1 1 1 1 1 1 1 1 1 1 1 1 1 1 1 1 1 1 1 1 1 1 1 1 1 1 1 1 1 1 1 1 1 1 1 1 1 1 1 1 1 1 1 1 1 1 1 1 1 1 1 1 1 1 1 1 1 1 1 1 1 1 1 1 1 1 1 1 1 1 1 1 1 1 1 1 1 1 1 1 1 
</DataArray>
</CellData>
<Points>
<DataArray NumberOfComponents="3" format="ascii" type="Float64">
0.125 0.53125 0 0.125 0.546875 0 0.109375 0.546875 0 0.109375 0.53125 0 0.09375 0.53125 0 0.09375 0.546875 0 0.09375 0.5625 0 0.109375 0.5625 0 0.125 0.5625 0 0.28125 0.96875 0 0.28125 0.953125 0 0.296875 0.953125 0 0.296875 0.96875 0 0.3125 0.9375 0 0.3125 0.953125 0 0.296875 0.9375 0 0.0625 0.53125 0 0.0625 0.515625 0 0.078125 0.515625 0 0.078125 0.53125 0 0.09375 0.515625 0 0.09375 0.5 0 0.078125 0.5 0 0.0625 0.5 0 0.3125 0.96875 0 0.3125 0.984375 0 0.296875 0.984375 0 0.28125 0.984375 0 0.28125 1 0 0.296875 1 0 0.3125 1 0 0.109375 0.5 0 0.109375 0.515625 0 0.125 0.515625 0 0.125 0.5 0 0.34375 0.96875 0 0.34375 0.984375 0 0.328125 0.984375 0 0.328125 0.96875 0 0.328125 1 0 0.328125 0.953125 0 0.34375 0.9375 0 0.34375 0.953125 0 0.328125 0.9375 0 0.3125 0.90625 0 0.3125 0.890625 0 0.328125 0.890625 0 0.328125 0.90625 0 0.34375 0.90625 0 0.34375 0.890625 0 0.34375 0.875 0 0.328125 0.875 0 0.375 0.90625 0 0.375 0.921875 0 0.359375 0.921875 0 0.359375 0.90625 0 0.34375 0.921875 0 0.359375 0.9375 0 0.375 0.9375 0 0.03125 0.5 0 0.046875 0.5 0 0.046875 0.515625 0 0.03125 0.515625 0 0.03125 0.53125 0 0.046875 0.53125 0 0.265625 1 0 0.265625 0.984375 0 0.265625 0.96875 0 0.25 0.96875 0 0.25 0.984375 0 0.25 0.953125 0 0.265625 0.953125 0 0.28125 0.9375 0 0.265625 0.9375 0 0.25 0.9375 0 0.40625 0.9375 0 0.390625 0.9375 0 0.390625 0.921875 0 0.40625 0.921875 0 0.40625 0.90625 0 0.390625 0.90625 0 0.15625 0.84375 0 0.140625 0.84375 0 0.140625 0.828125 0 0.15625 0.828125 0 0.125 0.8125 0 0.140625 0.8125 0 0.125 0.828125 0 0.5 0.96875 0 0.5 0.984375 0 0.484375 0.984375 0 0.484375 0.96875 0 0.46875 0.96875 0 0.46875 0.984375 0 0.46875 1 0 0.484375 1 0 0.5 1 0 0.328125 0.921875 0 0.3125 0.921875 0 0.5 0.90625 0 0.5 0.921875 0 0.484375 0.921875 0 0.484375 0.90625 0 0.46875 0.90625 0 0.46875 0.921875 0 0.46875 0.9375 0 0.484375 0.9375 0 0.5 0.9375 0 0.375 0.59375 0 0.375 0.609375 0 0.359375 0.609375 0 0.359375 0.59375 0 0.125 0.78125 0 0.125 0.796875 0 0.109375 0.796875 0 0.109375 0.78125 0 0.34375 0.625 0 0.34375 0.609375 0 0.359375 0.625 0 0.09375 0.8125 0 0.09375 0.796875 0 0.109375 0.8125 0 0.484375 0.953125 0 0.46875 0.953125 0 0.5 0.953125 0 0.25 0.90625 0 0.25 0.890625 0 0.265625 0.890625 0 0.265625 0.90625 0 0.28125 0.875 0 0.28125 0.890625 0 0.265625 0.875 0 0.25 1 0 0.40625 0.875 0 0.421875 0.875 0 0.421875 0.890625 0 0.40625 0.890625 0 0.421875 0.90625 0 0.4375 0.90625 0 0.4375 0.890625 0 0.4375 0.875 0 0.3125 0.53125 0 0.3125 0.546875 0 0.296875 0.546875 0 0.296875 0.53125 0 0.0625 0.71875 0 0.0625 0.734375 0 0.046875 0.734375 0 0.046875 0.71875 0 0.28125 0.5625 0 0.28125 0.546875 0 0.296875 0.5625 0 0.03125 0.75 0 0.03125 0.734375 0 0.046875 0.75 0 0.28125 0.90625 0 0.296875 0.890625 0 0.296875 0.90625 0 0.3125 0.875 0 0.296875 0.875 0 0.453125 0.890625 0 0.453125 0.90625 0 0.46875 0.890625 0 0.46875 0.875 0 0.453125 0.875 0 0.21875 0.6875 0 0.203125 0.6875 0 0.203125 0.671875 0 0.21875 0.671875 0 0.1875 0.65625 0 0.203125 0.65625 0 0.1875 0.671875 0 0.46875 0.6875 0 0.453125 0.6875 0 0.453125 0.671875 0 0.46875 0.671875 0 0.0625 0.96875 0 0.0625 0.984375 0 0.046875 0.984375 0 0.046875 0.96875 0 0.3125 0.78125 0 0.3125 0.796875 0 0.296875 0.796875 0 0.296875 0.78125 0 0.03125 1 0 0.03125 0.984375 0 0.046875 1 0 0.28125 0.8125 0 0.28125 0.796875 0 0.296875 0.8125 0 0.40625 0.59375 0 0.40625 0.609375 0 0.390625 0.609375 0 0.390625 0.59375 0 0.15625 0.78125 0 0.15625 0.796875 0 0.140625 0.796875 0 0.140625 0.78125 0 0.375 0.625 0 0.390625 0.625 0 0.21875 0.65625 0 0.234375 0.65625 0 0.234375 0.671875 0 0.25 0.6875 0 0.234375 0.6875 0 0.25 0.671875 0 0.09375 0.71875 0 0.09375 0.734375 0 0.078125 0.734375 0 0.078125 0.71875 0 0.34375 0.53125 0 0.34375 0.546875 0 0.328125 0.546875 0 0.328125 0.53125 0 0.0625 0.75 0 0.078125 0.75 0 0.3125 0.5625 0 0.328125 0.5625 0 0.171875 0.84375 0 0.171875 0.859375 0 0.15625 0.859375 0 0.1875 0.875 0 0.171875 0.875 0 0.1875 0.859375 0 0.34375 0.8125 0 0.328125 0.8125 0 0.328125 0.796875 0 0.34375 0.796875 0 0.5 0.6875 0 0.484375 0.6875 0 0.484375 0.671875 0 0.5 0.671875 0 0.09375 0.96875 0 0.09375 0.984375 0 0.078125 0.984375 0 0.078125 0.96875 0 0.34375 0.78125 0 0.328125 0.78125 0 0.484375 0.703125 0 0.46875 0.703125 0 0.0625 1 0 0.078125 1 0 0.3125 0.8125 0 0 0.53125 0 0 0.515625 0 0.015625 0.515625 0 0.015625 0.53125 0 0.015625 0.5 0 0 0.5 0 0.375 0.5625 0 0.359375 0.5625 0 0.359375 0.546875 0 0.375 0.546875 0 0.375 0.75 0 0.375 0.765625 0 0.359375 0.765625 0 0.359375 0.75 0 0.21875 0.875 0 0.203125 0.875 0 0.203125 0.859375 0 0.21875 0.859375 0 0.4375 0.6875 0 0.4375 0.671875 0 0.03125 0.96875 0 0.125 0.84375 0 0.375 0.65625 0 0.375 0.640625 0 0.390625 0.640625 0 0.390625 0.65625 0 0.15625 0.8125 0 0.40625 0.625 0 0.40625 0.640625 0 0.21875 0.625 0 0.234375 0.625 0 0.234375 0.640625 0 0.21875 0.640625 0 0.25 0.65625 0 0.25 0.640625 0 0.09375 0.75 0 0.25 0.625 0 0.359375 0.890625 0 0.375 0.890625 0 0.375 0.875 0 0.359375 0.875 0 0.1875 0.6875 0 0.34375 0.5625 0 0.359375 0.578125 0 0.34375 0.578125 0 0.09375 0.78125 0 0.09375 0.765625 0 0.109375 0.765625 0 0.34375 0.59375 0 0.125 0.75 0 0.125 0.765625 0 0.109375 0.75 0 0.375 0.578125 0 0.40625 0.5625 0 0.421875 0.5625 0 0.421875 0.578125 0 0.40625 0.578125 0 0 0.875 0 0 0.859375 0 0.015625 0.859375 0 0.015625 0.875 0 0.4375 0.78125 0 0.4375 0.765625 0 0.453125 0.765625 0 0.453125 0.78125 0 0.46875 0.75 0 0.46875 0.765625 0 0.453125 0.75 0 0.09375 0.875 0 0.09375 0.859375 0 0.109375 0.859375 0 0.109375 0.875 0 0.25 0.75 0 0.265625 0.75 0 0.265625 0.765625 0 0.25 0.765625 0 0.46875 0.78125 0 0.46875 0.796875 0 0.453125 0.796875 0 0.21875 0.9375 0 0.234375 0.9375 0 0.234375 0.953125 0 0.21875 0.953125 0 0.484375 0.75 0 0.484375 0.765625 0 0.484375 0.78125 0 0.234375 0.96875 0 0.5 0.78125 0 0.5 0.765625 0 0.5 0.75 0 0.34375 0.5 0 0.359375 0.5 0 0.359375 0.515625 0 0.34375 0.515625 0 0.375 0.53125 0 0.359375 0.53125 0 0.375 0.515625 0 0.46875 0.625 0 0.46875 0.640625 0 0.453125 0.640625 0 0.453125 0.625 0 0.21875 0.8125 0 0.21875 0.828125 0 0.203125 0.828125 0 0.203125 0.8125 0 0.421875 0.59375 0 0.15625 0.765625 0 0.171875 0.765625 0 0.171875 0.78125 0 0.4375 0.5625 0 0.4375 0.578125 0 0.1875 0.75 0 0.1875 0.765625 0 0.171875 0.75 0 0.46875 0.71875 0 0.484375 0.71875 0 0.21875 0.90625 0 0.21875 0.890625 0 0.234375 0.890625 0 0.234375 0.90625 0 0.5 0.703125 0 0.09375 1 0 0.25 0.875 0 0.234375 0.875 0 0.390625 0.5625 0 0.390625 0.578125 0 0.390625 0.890625 0 0.390625 0.875 0 0.21875 1 0 0.21875 0.984375 0 0.234375 0.984375 0 0.234375 1 0 0.265625 0.5625 0 0.265625 0.546875 0 0.015625 0.75 0 0.015625 0.734375 0 0.28125 0.53125 0 0.265625 0.53125 0 0.03125 0.71875 0 0.015625 0.71875 0 0.25 0.53125 0 0.25 0.546875 0 0 0.71875 0 0 0.734375 0 0.25 0.5625 0 0 0.75 0 0.15625 0.875 0 0.140625 0.875 0 0.140625 0.859375 0 0.40625 0.6875 0 0.390625 0.6875 0 0.390625 0.671875 0 0.40625 0.671875 0 0.40625 0.65625 0 0.125 0.859375 0 0.375 0.671875 0 0.125 0.875 0 0.375 0.6875 0 0.1875 0.640625 0 0.203125 0.640625 0 0.203125 0.625 0 0.1875 0.625 0 0.4375 0.65625 0 0.4375 0.640625 0 0.453125 0.65625 0 0.1875 0.84375 0 0.1875 0.828125 0 0.203125 0.84375 0 0.03125 0.9375 0 0.046875 0.9375 0 0.046875 0.953125 0 0.03125 0.953125 0 0.46875 0.65625 0 0.21875 0.84375 0 0.0625 0.953125 0 0.28125 0.75 0 0.296875 0.75 0 0.296875 0.765625 0 0.28125 0.765625 0 0.28125 0.78125 0 0.3125 0.765625 0 0.0625 0.9375 0 0.3125 0.75 0 0.140625 0.765625 0 0.15625 0.75 0 0.140625 0.75 0 0.5 0.796875 0 0.484375 0.796875 0 0.21875 0.96875 0 0.46875 0.8125 0 0.484375 0.8125 0 0.5 0.8125 0 0.28125 0.921875 0 0.265625 0.921875 0 0.25 0.921875 0 0.1875 0.78125 0 0.1875 0.796875 0 0.171875 0.796875 0 0.4375 0.59375 0 0.4375 0.609375 0 0.421875 0.609375 0 0.171875 0.8125 0 0.421875 0.625 0 0.4375 0.921875 0 0.421875 0.921875 0 0.421875 0.9375 0 0.4375 0.9375 0 0.125 0.96875 0 0.125 0.984375 0 0.109375 0.984375 0 0.109375 0.96875 0 0.375 0.78125 0 0.375 0.796875 0 0.359375 0.796875 0 0.359375 0.78125 0 0.109375 1 0 0.359375 0.8125 0 0.125 1 0 0.375 0.8125 0 0.34375 0.84375 0 0.34375 0.859375 0 0.328125 0.859375 0 0.328125 0.84375 0 0.3125 0.859375 0 0.484375 0.65625 0 0.328125 0.765625 0 0.078125 0.953125 0 0.34375 0.765625 0 0.09375 0.953125 0 0.5 0.65625 0 0.484375 0.640625 0 0.5 0.640625 0 0.34375 0.75 0 0.328125 0.75 0 0.09375 0.9375 0 0.078125 0.9375 0 0.1875 0.96875 0 0.1875 0.984375 0 0.171875 0.984375 0 0.171875 0.96875 0 0.15625 1 0 0.15625 0.984375 0 0.171875 1 0 0.421875 0.6875 0 0.421875 0.671875 0 0.265625 0.796875 0 0.265625 0.78125 0 0.015625 0.984375 0 0.015625 0.96875 0 0 0.96875 0 0 0.984375 0 0.25 0.8125 0 0.25 0.796875 0 0.265625 0.8125 0 0 1 0 0.015625 1 0 0.171875 0.671875 0 0.171875 0.65625 0 0 0.78125 0 0 0.765625 0 0.015625 0.765625 0 0.015625 0.78125 0 0.15625 0.65625 0 0.15625 0.671875 0 0.453125 1 0 0.453125 0.984375 0 0.453125 0.96875 0 0.4375 0.96875 0 0.4375 0.984375 0 0.4375 1 0 0.109375 0.9375 0 0.109375 0.953125 0 0.125 0.953125 0 0.296875 0.921875 0 0.4375 0.8125 0 0.4375 0.796875 0 0.453125 0.8125 0 0.21875 0.78125 0 0.21875 0.796875 0 0.203125 0.796875 0 0.203125 0.78125 0 0.46875 0.59375 0 0.46875 0.609375 0 0.453125 0.609375 0 0.453125 0.59375 0 0.1875 0.8125 0 0.4375 0.625 0 0.453125 0.9375 0 0.453125 0.921875 0 0.078125 0.78125 0 0.078125 0.765625 0 0.0625 0.765625 0 0.25 0.78125 0 0.09375 0.90625 0 0.09375 0.890625 0 0.109375 0.890625 0 0.109375 0.90625 0 0.125 0.890625 0 0.453125 0.578125 0 0.203125 0.765625 0 0.46875 0.5625 0 0.46875 0.578125 0 0.453125 0.5625 0 0.21875 0.75 0 0.21875 0.765625 0 0.203125 0.75 0 0.03125 0.875 0 0.03125 0.859375 0 0.046875 0.859375 0 0.046875 0.875 0 0.4375 0.953125 0 0.453125 0.953125 0 0.125 0.90625 0 0.125 0.921875 0 0.109375 0.921875 0 0.4375 0.859375 0 0.453125 0.859375 0 0.5 0.875 0 0.484375 0.875 0 0.484375 0.859375 0 0.5 0.859375 0 0.328125 0.515625 0 0.328125 0.5 0 0.09375 0.6875 0 0.09375 0.703125 0 0.078125 0.703125 0 0.078125 0.6875 0 0.375 0.5 0 0.125 0.6875 0 0.125 0.703125 0 0.109375 0.703125 0 0.109375 0.6875 0 0.46875 0.84375 0 0.453125 0.84375 0 0.453125 0.828125 0 0.46875 0.828125 0 0.40625 0.84375 0 0.40625 0.828125 0 0.421875 0.828125 0 0.421875 0.84375 0 0.5 0.84375 0 0.484375 0.84375 0 0.484375 0.828125 0 0.5 0.828125 0 0.390625 0.859375 0 0.40625 0.859375 0 0.359375 0.859375 0 0.3125 0.515625 0 0.0625 0.703125 0 0.28125 0.5 0 0.28125 0.515625 0 0.265625 0.515625 0 0.265625 0.5 0 0.03125 0.6875 0 0.03125 0.703125 0 0.015625 0.703125 0 0.015625 0.6875 0 0.375 0.84375 0 0.390625 0.84375 0 0.375 0.859375 0 0.3125 0.5 0 0.296875 0.515625 0 0.296875 0.5 0 0.0625 0.6875 0 0.046875 0.703125 0 0.046875 0.6875 0 0 0.6875 0 0 0.671875 0 0.015625 0.671875 0 0.4375 0.84375 0 0.4375 0.828125 0 0.375 0.828125 0 0.390625 0.828125 0 0.09375 0.671875 0 0.109375 0.671875 0 0.15625 0.6875 0 0.140625 0.6875 0 0.140625 0.671875 0 0.421875 0.859375 0 0.46875 0.859375 0 0.359375 0.84375 0 0.125 0.9375 0 0.140625 0.9375 0 0.140625 0.953125 0 0.390625 0.75 0 0.390625 0.765625 0 0.0625 0.65625 0 0.046875 0.65625 0 0.046875 0.640625 0 0.0625 0.640625 0 0 0.65625 0 0 0.640625 0 0.015625 0.640625 0 0.015625 0.65625 0 0.375 1 0 0.375 0.984375 0 0.390625 0.984375 0 0.390625 1 0 0.203125 0.90625 0 0.203125 0.890625 0 0.453125 0.71875 0 0.453125 0.703125 0 0.1875 0.890625 0 0.4375 0.703125 0 0.09375 0.625 0 0.109375 0.625 0 0.109375 0.640625 0 0.09375 0.640625 0 0.15625 0.53125 0 0.15625 0.515625 0 0.171875 0.515625 0 0.171875 0.53125 0 0 0.625 0 0.015625 0.625 0 0.0625 0.625 0 0.046875 0.625 0 0.421875 0.984375 0 0.421875 0.96875 0 0.375 0.96875 0 0.390625 0.96875 0 0.125 0.65625 0 0.109375 0.65625 0 0.125 0.640625 0 0.078125 0.640625 0 0.078125 0.65625 0 0.40625 1 0 0.40625 0.984375 0 0.09375 0.65625 0 0.0625 0.671875 0 0.046875 0.671875 0 0.125 0.671875 0 0.078125 0.671875 0 0.03125 0.671875 0 0.03125 0.65625 0 0.03125 0.640625 0 0.421875 1 0 0.359375 1 0 0.359375 0.984375 0 0.40625 0.8125 0 0.421875 0.8125 0 0.359375 0.828125 0 0.140625 0.65625 0 0.265625 0.734375 0 0.28125 0.734375 0 0.21875 0.734375 0 0.234375 0.734375 0 0.234375 0.75 0 0.375 0.71875 0 0.375 0.734375 0 0.359375 0.734375 0 0.359375 0.71875 0 0.21875 0.71875 0 0.203125 0.734375 0 0.203125 0.71875 0 0.390625 0.8125 0 0.34375 0.734375 0 0.34375 0.71875 0 0.34375 0.703125 0 0.359375 0.703125 0 0.078125 0.625 0 0.125 0.625 0 0.140625 0.625 0 0.140625 0.640625 0 0.40625 0.96875 0 0.171875 0.828125 0 0.3125 0.71875 0 0.3125 0.703125 0 0.328125 0.703125 0 0.328125 0.71875 0 0.21875 0.703125 0 0.234375 0.703125 0 0.234375 0.71875 0 0.375 0.703125 0 0.359375 0.6875 0 0.0625 0.875 0 0.078125 0.875 0 0.078125 0.890625 0 0.0625 0.890625 0 0.3125 0.6875 0 0.328125 0.6875 0 0.296875 0.703125 0 0.296875 0.6875 0 0.203125 0.703125 0 0.34375 0.6875 0 0.25 0.703125 0 0.078125 0.90625 0 0.15625 0.625 0 0.171875 0.625 0 0.171875 0.640625 0 0.15625 0.640625 0 0.140625 0.984375 0 0.140625 1 0 0.390625 0.796875 0 0.1875 1 0 0.421875 0.796875 0 0.09375 0.921875 0 0.25 0.71875 0 0.25 0.734375 0 0.328125 0.734375 0 0.265625 0.640625 0 0.265625 0.65625 0 0.21875 0.921875 0 0.203125 0.921875 0 0.46875 0.734375 0 0.453125 0.734375 0 0.3125 0.65625 0 0.3125 0.640625 0 0.328125 0.640625 0 0.328125 0.65625 0 0.1875 0.90625 0 0.4375 0.71875 0 0.09375 0.828125 0 0.078125 0.828125 0 0.078125 0.8125 0 0.34375 0.640625 0 0.328125 0.625 0 0.28125 0.65625 0 0.28125 0.640625 0 0.296875 0.640625 0 0.296875 0.65625 0 0.234375 0.921875 0 0.5 0.71875 0 0.5 0.734375 0 0.484375 0.734375 0 0.1875 0.921875 0 0.4375 0.734375 0 0.09375 0.84375 0 0.109375 0.828125 0 0.109375 0.84375 0 0.34375 0.65625 0 0.359375 0.640625 0 0.359375 0.65625 0 0.3125 0.671875 0 0.296875 0.671875 0 0 0.84375 0 0.015625 0.84375 0 0.265625 0.671875 0 0.03125 0.84375 0 0.046875 0.84375 0 0.28125 0.671875 0 0.34375 0.671875 0 0.328125 0.671875 0 0.28125 0.6875 0 0.0625 0.859375 0 0.359375 0.671875 0 0.265625 0.6875 0 0.4375 0.75 0 0.21875 0.53125 0 0.234375 0.53125 0 0.234375 0.546875 0 0.21875 0.546875 0 0.234375 0.5625 0 0.21875 0.5625 0 0.203125 0.5625 0 0.203125 0.546875 0 0.109375 0.71875 0 0.203125 0.53125 0 0.171875 0.546875 0 0.15625 0.546875 0 0.140625 0.53125 0 0.140625 0.546875 0 0.1875 0.53125 0 0.1875 0.546875 0 0.078125 0.546875 0 0.203125 0.9375 0 0.1875 0.5625 0 0.15625 0.5625 0 0.140625 0.5625 0 0.484375 0.890625 0 0.0625 0.78125 0 0.046875 0.78125 0 0.046875 0.765625 0 0.3125 0.59375 0 0.296875 0.59375 0 0.296875 0.578125 0 0.3125 0.578125 0 0.03125 0.765625 0 0.28125 0.578125 0 0.328125 0.578125 0 0.234375 0.515625 0 0.25 0.515625 0 0.171875 0.5625 0 0.5 0.890625 0 0.0625 0.5625 0 0.0625 0.546875 0 0.078125 0.5625 0 0.03125 0.78125 0 0.28125 0.59375 0 0.265625 0.59375 0 0.265625 0.578125 0 0.328125 0.59375 0 0.046875 0.546875 0 0.25 0.578125 0 0.03125 0.5625 0 0.03125 0.546875 0 0.046875 0.5625 0 0.03125 0.625 0 0.359375 0.96875 0 0.3125 0.625 0 0.296875 0.625 0 0.140625 0.734375 0 0.15625 0.734375 0 0.28125 0.625 0 0.265625 0.625 0 0.109375 0.734375 0 0.125 0.734375 0 0.390625 0.546875 0 0.421875 0.546875 0 0.4375 0.546875 0 0.171875 0.734375 0 0.1875 0.734375 0 0.40625 0.796875 0 0.34375 0.828125 0 0.328125 0.828125 0 0.15625 0.5 0 0.140625 0.515625 0 0.140625 0.5 0 0.140625 0.96875 0 0.390625 0.78125 0 0.421875 0.78125 0 0.1875 0.71875 0 0.1875 0.703125 0 0.15625 0.96875 0 0.15625 0.953125 0 0.40625 0.78125 0 0.40625 0.765625 0 0.125 0.71875 0 0.21875 0.515625 0 0.1875 0.515625 0 0.078125 0.859375 0 0.078125 0.84375 0 0.5 0.5625 0 0.484375 0.5625 0 0.484375 0.546875 0 0.5 0.546875 0 0.453125 0.546875 0 0.0625 0.84375 0 0.46875 0.546875 0 0.5 0.578125 0 0.484375 0.578125 0 0 0.703125 0 0.25 0.5 0 0.234375 0.5 0 0.1875 0.5 0 0.203125 0.5 0 0.203125 0.515625 0 0.421875 0.765625 0 0.21875 