<?xml version="1.0"?>
<VTKFile byte_order="LittleEndian" type="UnstructuredGrid" version="0.1">
<UnstructuredGrid>
<Piece NumberOfCells="1024" NumberOfPoints="1089">
<PointData>
<DataArray Name="value0" NumberOfComponents="1" format="ascii" type="Float32">
-0.53125 -0.515625 -0.515625 -0.53125 -0.53125 -0.515625 -0.5 -0.5 -0.5 -0.5 -0.515625 -0.515625 -0.5 -0.78125 -0.765625 -0.765625 -0.78125 -0.53125 -0.515625 -0.53125 -0.5 -0.515625 -0.53125 -0.53125 -0.515625 -0.5 -1 -1 -0.984375 -0.984375 -0.96875 -0.96875 -0.984375 -1 -0.546875 -0.546875 -0.546875 -0.5625 -0.5625 -0.5625 -0.8125 -0.8125 -0.828125 -0.828125 -0.84375 -0.84375 -0.828125 -0.875 -0.875 -0.859375 -0.859375 -0.84375 -0.859375 -0.84375 -0.828125 -0.828125 -0.9375 -0.9375 -0.921875 -0.921875 -0.8125 -0.8125 -0.8125 -0.6875 -0.6875 -0.671875 -0.671875 -0.65625 -0.65625 -0.671875 -0.625 -0.625 -0.640625 -0.640625 -0.65625 -0.65625 -0.640625 -0.625 -0.65625 -0.640625 -0.625 -0.625 -0.640625 -0.59375 -0.578125 -0.578125 -0.59375 -0.78125 -0.765625 -0.765625 -0.78125 -0.59375 -0.578125 -0.78125 -0.765625 -0.5625 -0.5625 -0.75 -0.75 -1 -1 -0.984375 -0.984375 -0.8125 -0.796875 -0.796875 -0.96875 -0.96875 -0.984375 -0.78125 -0.78125 -0.796875 -0.609375 -0.609375 -0.59375 -0.59375 -0.59375 -0.609375 -0.78125 -0.796875 -0.796875 -0.90625 -0.90625 -0.921875 -0.796875 -0.8125 -0.828125 -0.84375 -0.84375 -0.828125 -0.59375 -0.59375 -0.609375 -0.609375 -0.78125 -0.78125 -0.796875 -0.796875 -0.625 -0.625 -0.609375 -0.8125 -0.8125 -0.796875 -0.96875 -0.953125 -0.953125 -0.96875 -0.96875 -0.953125 -0.9375 -0.9375 -0.9375 -0.84375 -0.84375 -0.828125 -0.828125 -0.8125 -0.8125 -0.8125 -0.9375 -0.953125 -0.96875 -0.96875 -0.953125 -0.9375 -0.8125 -0.828125 -0.84375 -0.84375 -0.828125 -0.8125 -0.921875 -0.921875 -0.90625 -0.90625 -0.90625 -0.921875 -0.53125 -0.546875 -0.546875 -0.53125 -0.515625 -0.515625 -0.53125 -0.53125 -0.515625 -0.5 -0.5 -0.5 -0.984375 -0.984375 -0.984375 -1 -1 -1 -0.875 -0.875 -0.859375 -0.859375 -0.859375 -0.859375 -0.875 -0.875 -0.84375 -0.828125 -0.828125 -0.84375 -0.9375 -0.9375 -0.953125 -0.953125 -0.96875 -0.96875 -0.96875 -0.953125 -0.9375 -0.75 -0.75 -0.765625 -0.765625 -0.5625 -0.5625 -0.578125 -0.578125 -0.78125 -0.78125 -0.59375 -0.59375 -0.796875 -0.78125 -0.90625 -0.890625 -0.890625 -0.953125 -0.96875 -0.9375 -0.78125 -0.765625 -0.765625 -0.78125 -0.59375 -0.578125 -0.578125 -0.59375 -0.75 -0.5625 -0.5625 -0.78125 -0.90625 -0.90625 -0.890625 -0.890625 -0.859375 -0.859375 -0.875 -0.875 -1 -1 -0.984375 -0.984375 -0.5 -0.515625 -0.53125 -0.53125 -0.515625 -0.5 -0.796875 -0.796875 -0.609375 -0.609375 -0.8125 -0.796875 -0.8125 -0.625 -0.609375 -0.625 -0.8125 -0.90625 -0.921875 -0.921875 -0.875 -0.875 -0.765625 -0.765625 -0.75 -0.75 -0.625 -0.71875 -0.734375 -0.734375 -0.71875 -0.53125 -0.53125 -0.546875 -0.546875 -0.71875 -0.734375 -0.5625 -0.5625 -0.546875 -0.75 -0.75 -0.875 -0.875 -0.890625 -0.765625 -0.765625 -0.59375 -0.609375 -0.609375 -0.59375 -0.5625 -0.546875 -0.75 -0.734375 -0.53125 -0.53125 -0.546875 -0.71875 -0.71875 -0.734375 -0.90625 -0.921875 -0.921875 -0.90625 -0.90625 -0.921875 -0.9375 -0.9375 -0.921875 -0.921875 -0.796875 -0.90625 -0.90625 -0.921875 -0.90625 -0.90625 -0.921875 -0.84375 -0.859375 -0.859375 -0.84375 -0.875 -0.859375 -0.875 -0.96875 -0.875 -0.5 -0.515625 -0.6875 -0.6875 -0.703125 -0.703125 -0.703125 -0.6875 -0.8125 -0.828125 -0.8125 -0.984375 -0.984375 -1 -1 -0.8125 -0.8125 -0.828125 -0.828125 -0.625 -0.625 -0.640625 -0.640625 -0.84375 -0.84375 -0.828125 -0.65625 -0.65625 -0.640625 -0.796875 -0.796875 -0.609375 -0.609375 -0.5 -0.5 -0.515625 -0.515625 -0.8125 -0.8125 -0.625 -0.9375 -0.9375 -0.921875 -0.921875 -0.890625 -0.890625 -0.890625 -0.875 -0.75 -0.75 -0.859375 -0.859375 -0.6875 -0.671875 -0.671875 -0.6875 -0.875 -0.859375 -0.859375 -0.875 -0.890625 -0.890625 -0.890625 -0.84375 -0.859375 -0.546875 -0.546875 -0.546875 -0.5625 -0.5625 -0.75 -0.75 -0.765625 -0.765625 -0.875 -0.859375 -0.859375 -0.875 -0.890625 -0.90625 -0.71875 -0.703125 -0.703125 -0.71875 -0.90625 -0.890625 -0.890625 -0.90625 -0.71875 -0.703125 -0.90625 -0.890625 -0.78125 -0.78125 -0.765625 -0.875 -0.921875 -0.5625 -0.546875 -0.546875 -0.5625 -0.75 -0.75 -0.765625 -0.765625 -0.5625 -0.5625 -0.578125 -0.578125 -0.78125 -0.765625 -0.59375 -0.578125 -0.71875 -0.703125 -0.703125 -0.71875 -0.890625 -0.890625 -0.6875 -0.78125 -0.765625 -0.59375 -0.578125 -0.75 -0.765625 -0.5625 -0.578125 -0.546875 -0.546875 -0.5625 -0.5625 -0.8125 -0.796875 -0.796875 -0.84375 -0.828125 -0.828125 -0.8125 -0.828125 -0.8125 -0.65625 -0.671875 -0.671875 -0.65625 -0.65625 -0.671875 -0.59375 -0.609375 -0.609375 -0.59375 -0.59375 -0.59375 -0.609375 -0.609375 -0.5 -0.515625 -0.515625 -0.5 -0.984375 -0.984375 -0.96875 -0.625 -0.640625 -0.640625 -0.625 -0.53125 -0.53125 -0.515625 -0.859375 -1 -0.65625 -1 -0.984375 -0.53125 -0.53125 -0.515625 -1 -1 -1 -0.984375 -0.984375 -0.546875 -0.546875 -0.890625 -0.890625 -0.890625 -0.53125 -0.546875 -0.546875 -0.53125 -0.90625 -0.90625 -0.78125 -0.796875 -0.796875 -0.890625 -0.90625 -0.90625 -0.90625 -0.890625 -0.890625 -0.5625 -0.546875 -0.5625 -0.875 -0.890625 -0.78125 -0.765625 -0.765625 -0.875 -0.890625 -0.875 -0.921875 -0.578125 -0.578125 -0.578125 -0.578125 -0.921875 -0.578125 -0.5625 -0.9375 -0.9375 -0.578125 -0.59375 -0.8125 -0.9375 -0.921875 -0.921875 -0.9375 -0.578125 -0.5625 -0.90625 -0.796875 -0.90625 -0.921875 -0.921875 -0.546875 -0.875 -0.53125 -0.546875 -0.546875 -0.53125 -0.84375 -0.84375 -0.828125 -0.828125 -0.71875 -0.734375 -0.734375 -0.71875 -0.53125 -0.53125 -0.546875 -0.546875 -0.71875 -0.71875 -0.734375 -0.734375 -0.625 -0.71875 -0.734375 -0.734375 -0.71875 -0.5625 -0.546875 -0.5625 -0.84375 -0.859375 -0.859375 -0.75 -0.734375 -0.75 -0.5625 -0.546875 -0.75 -0.734375 -0.5625 -0.75 -0.84375 -0.859375 -0.75 -0.734375 -0.53125 -0.84375 -0.828125 -0.828125 -0.71875 -0.53125 -0.71875 -0.84375 -0.859375 -0.859375 -0.828125 -0.703125 -0.703125 -0.515625 -0.703125 -0.703125 -0.5 -0.515625 -0.8125 -0.6875 -0.703125 -0.6875 -0.5 -0.5 -0.515625 -0.6875 -0.6875 -0.703125 -0.515625 -0.8125 -0.703125 -0.5 -0.515625 -0.5 -0.6875 -0.703125 -0.6875 -0.5 -0.6875 -0.6875 -0.59375 -0.59375 -0.609375 -0.609375 -0.703125 -0.703125 -0.640625 -0.640625 -0.65625 -0.671875 -0.671875 -0.65625 -0.671875 -0.671875 -0.671875 -0.6875 -0.671875 -0.640625 -0.640625 -0.625 -0.625 -0.625 -0.640625 -0.640625 -0.640625 -0.640625 -0.65625 -0.640625 -0.65625 -0.65625 -0.65625 -0.640625 -0.765625 -0.65625 -0.65625 -0.640625 -0.65625 -0.671875 -0.671875 -0.84375 -0.96875 -0.953125 -0.953125 -0.96875 -0.96875 -0.953125 -0.953125 -0.96875 -0.78125 -0.78125 -0.765625 -0.96875 -0.96875 -0.953125 -0.953125 -0.65625 -0.65625 -0.671875 -0.765625 -0.96875 -0.953125 -0.953125 -0.96875 -0.65625 -0.65625 -0.84375 -0.96875 -0.953125 -0.953125 -0.96875 -0.671875 -0.671875 -0.6875 -0.6875 -0.671875 -0.671875 -0.875 -0.875 -0.6875 -0.671875 -0.671875 -0.6875 -0.65625 -0.65625 -0.640625 -0.96875 -0.953125 -0.953125 -0.96875 -0.96875 -0.953125 -0.953125 -0.96875 -0.96875 -0.953125 -0.953125 -0.9375 -0.953125 -0.9375 -0.953125 -0.9375 -0.953125 -0.96875 -0.953125 -0.96875 -0.59375 -0.609375 -0.609375 -0.59375 -0.953125 -0.984375 -0.984375 -1 -1 -1 -0.984375 -0.9375 -0.921875 -0.9375 -0.921875 -0.59375 -0.6875 -0.703125 -0.703125 -0.96875 -0.984375 -0.984375 -0.6875 -0.6875 -0.859375 -0.984375 -0.984375 -0.796875 -0.796875 -0.984375 -0.984375 -0.609375 -0.609375 -0.59375 -1 -0.984375 -1 -1 -0.984375 -1 -1 -1 -0.984375 -0.953125 -0.5625 -0.65625 -0.65625 -0.84375 -0.84375 -0.859375 -0.65625 -0.65625 -0.671875 -0.671875 -1 -0.984375 -1 -1 -0.8125 -0.625 -0.640625 -0.640625 -0.625 -0.828125 -0.625 -0.625 -0.640625 -0.640625 -0.671875 -0.5625 -0.5625 -0.671875 -0.75 -0.75 -0.84375 -0.9375 -0.71875 -0.734375 -0.734375 -0.71875 -0.71875 -0.734375 -0.5 -0.5 -0.515625 -0.515625 -0.6875 -0.78125 -0.671875 -0.671875 -0.75 -0.640625 -0.640625 -0.828125 -0.828125 -0.71875 -0.734375 -0.5 -0.515625 -0.6875 -0.703125 -0.703125 -0.53125 -0.71875 -0.71875 -0.53125 -0.515625 -0.71875 -0.703125 -0.734375 -0.734375 -0.75 -0.875 -0.875 -0.546875 -0.546875 -0.734375 -0.734375 -0.625 -0.625 -0.75 -0.9375 -0.9375 -0.9375 -0.9375 -0.75 -0.75 -0.734375 -0.71875 -0.703125 -0.8125 -0.703125 -0.703125 -0.640625 -0.640625 -0.9375 -0.9375 -0.71875 -0.703125 -0.703125 -0.890625 -0.890625 -0.703125 -0.875 -0.875 -0.890625 -0.890625 -0.6875 -0.703125 -0.734375 -1 -0.984375 -0.6875 -0.6875 -0.78125 -0.671875 -0.625 -1 -1 -0.984375 -0.5625 -0.546875 -0.625 -0.625 -1 -0.6875 -0.6875 -0.703125 -0.875 -0.875 -0.890625 -0.5 -0.5 -0.515625 -0.84375 -0.71875 -0.71875 -0.90625 -0.921875 -0.921875 -0.90625 -0.625 -0.640625 -0.671875 -0.65625 -0.953125 -0.734375 -0.71875 -0.5 -0.625 -0.609375 -0.625 -0.734375 -0.921875 -0.921875 -0.609375 -0.90625 -0.921875 -0.71875 -0.71875 -0.90625 -0.90625 -0.640625 -0.9375 -0.734375 -0.921875 -0.65625 -0.9375 -0.953125 -0.59375 -0.609375 -0.703125 -0.890625 -0.890625 -0.90625 -0.578125 -0.578125 -0.578125 -0.578125 -0.578125 -0.578125 -0.578125 -0.703125 -0.6875 -0.578125 -0.59375 -0.578125 -0.6875 -0.859375 -0.671875 -0.671875 -0.65625 -0.5 -0.5 -0.515625 -0.515625 -0.546875 -0.53125 -0.515625 -0.5 -0.796875 -0.8125 -0.796875 -0.796875 -0.78125 -0.78125 -0.796875 -0.78125 -0.78125 -0.578125 -0.765625 -0.578125 -0.578125 -0.765625 -0.578125 -0.765625 -0.59375 -0.59375 -0.78125 -0.78125 -0.59375 -0.59375 -0.78125 -0.796875 -0.625 -0.609375 -0.609375 -0.796875 -0.609375 -0.796875 -0.609375 -0.890625 -0.859375 -0.859375 -0.84375 -0.84375 -0.859375 -0.859375 -0.53125 -0.859375 -0.84375 -0.828125 -0.71875 -0.734375 -0.734375 -0.734375 -0.75 -0.921875 -0.75 -0.734375 -0.734375 -0.75 -0.734375 -0.765625 -0.765625 -0.765625 -0.765625 -0.75 -0.578125 -0.5 -0.828125 -0.828125 -0.625 -0.640625 -0.8125 -0.828125 -0.609375 -0.828125 -0.796875 -0.609375 -0.796875 -0.609375 -0.796875 
</DataArray>
</PointData>
<CellData>
<DataArray Name="ProcLoad" NumberOfComponents="1" format="ascii" type="Float32">
3 3 3 3 3 3 3 3 3 3 3 3 3 3 3 3 3 3 3 3 3 3 3 3 3 3 3 3 3 3 3 3 3 3 3 3 3 3 3 3 3 3 3 3 3 3 3 3 3 3 3 3 3 3 3 3 3 3 3 3 3 3 3 3 3 3 3 3 3 3 3 3 3 3 3 3 3 3 3 3 3 3 3 3 3 3 3 3 3 3 3 3 3 3 3 3 3 3 3 3 3 3 3 3 3 3 3 3 3 3 3 3 3 3 3 3 3 3 3 3 3 3 3 3 3 3 3 3 3 3 3 3 3 3 3 3 3 3 3 3 3 3 3 3 3 3 3 3 3 3 3 3 3 3 3 3 3 3 3 3 3 3 3 3 3 3 3 3 3 3 3 3 3 3 3 3 3 3 3 3 3 3 3 3 3 3 3 3 3 3 3 3 3 3 3 3 3 3 3 3 3 3 3 3 3 3 3 3 3 3 3 3 3 3 3 3 3 3 3 3 3 3 3 3 3 3 3 3 3 3 3 3 3 3 3 3 3 3 3 3 3 3 3 3 3 3 3 3 3 3 3 3 3 3 3 3 3 3 3 3 3 3 3 3 3 3 3 3 3 3 3 3 3 3 3 3 3 3 3 3 3 3 3 3 3 3 3 3 3 3 3 3 3 3 3 3 3 3 3 3 3 3 3 3 3 3 3 3 3 3 3 3 3 3 3 3 3 3 3 3 3 3 3 3 3 3 3 3 3 3 3 3 3 3 3 3 3 3 3 3 3 3 3 3 3 3 3 3 3 3 3 3 3 3 3 3 3 3 3 3 3 3 3 3 3 3 3 3 3 3 3 3 3 3 3 3 3 3 3 3 3 3 3 3 3 3 3 3 3 3 3 3 3 3 3 3 3 3 3 3 3 3 3 3 3 3 3 3 3 3 3 3 3 3 3 3 3 3 3 3 3 3 3 3 3 3 3 3 3 3 3 3 3 3 3 3 3 3 3 3 3 3 3 3 3 3 3 3 3 3 3 3 3 3 3 3 3 3 3 3 3 3 3 3 3 3 3 3 3 3 3 3 3 3 3 3 3 3 3 3 3 3 3 3 3 3 3 3 3 3 3 3 3 3 3 3 3 3 3 3 3 3 3 3 3 3 3 3 3 3 3 3 3 3 3 3 3 3 3 3 3 3 3 3 3 3 3 3 3 3 3 3 3 3 3 3 3 3 3 3 3 3 3 3 3 3 3 3 3 3 3 3 3 3 3 3 3 3 3 3 3 3 3 3 3 3 3 3 3 3 3 3 3 3 3 3 3 3 3 3 3 3 3 3 3 3 3 3 3 3 3 3 3 3 3 3 3 3 3 3 3 3 3 3 3 3 3 3 3 3 3 3 3 3 3 3 3 3 3 3 3 3 3 3 3 3 3 3 3 3 3 3 3 3 3 3 3 3 3 3 3 3 3 3 3 3 3 3 3 3 3 3 3 3 3 3 3 3 3 3 3 3 3 3 3 3 3 3 3 3 3 3 3 3 3 3 3 3 3 3 3 3 3 3 3 3 3 3 3 3 3 3 3 3 3 3 3 3 3 3 3 3 3 3 3 3 3 3 3 3 3 3 3 3 3 3 3 3 3 3 3 3 3 3 3 3 3 3 3 3 3 3 3 3 3 3 3 3 3 3 3 3 3 3 3 3 3 3 3 3 3 3 3 3 3 3 3 3 3 3 3 3 3 3 3 3 3 3 3 3 3 3 3 3 3 3 3 3 3 3 3 3 3 3 3 3 3 3 3 3 3 3 3 3 3 3 3 3 3 3 3 3 3 3 3 3 3 3 3 3 3 3 3 3 3 3 3 3 3 3 3 3 3 3 3 3 3 3 3 3 3 3 3 3 3 3 3 3 3 3 3 3 3 3 3 3 3 3 3 3 3 3 3 3 3 3 3 3 3 3 3 3 3 3 3 3 3 3 3 3 3 3 3 3 3 3 3 3 3 3 3 3 3 3 3 3 3 3 3 3 3 3 3 3 3 3 3 3 3 3 3 3 3 3 3 3 3 3 3 3 3 3 3 3 3 3 3 3 3 3 3 3 3 3 3 3 3 3 3 3 3 3 3 3 3 3 3 3 3 3 3 3 3 3 3 3 3 3 3 3 3 3 3 3 3 3 3 3 3 3 3 3 3 3 3 3 3 3 3 3 3 3 3 3 3 3 3 3 3 3 3 3 3 3 3 3 3 3 3 3 3 3 3 3 3 3 3 3 3 3 3 3 3 3 3 3 3 3 3 3 3 3 3 3 3 3 3 3 3 3 3 3 3 3 
</DataArray>
<DataArray Name="Subdomain" NumberOfComponents="1" format="ascii" type="Float32">
1 1 1 1 1 1 1 1 1 1 1 1 1 1 1 1 1 1 1 1 1 1 1 1 1 1 1 1 1 1 1 1 1 1 1 1 1 1 1 1 1 1 1 1 1 1 1 1 1 1 1 1 1 1 1 1 1 1 1 1 1 1 1 1 1 1 1 1 1 1 1 1 1 1 1 1 1 1 1 1 1 1 1 1 1 1 1 1 1 1 1 1 1 1 1 1 1 1 1 1 1 1 1 1 1 1 1 1 1 1 1 1 1 1 1 1 1 1 1 1 1 1 1 1 1 1 1 1 1 1 1 1 1 1 1 1 1 1 1 1 1 1 1 1 1 1 1 1 1 1 1 1 1 1 1 1 1 1 1 1 1 1 1 1 1 1 1 1 1 1 1 1 1 1 1 1 1 1 1 1 1 1 1 1 1 1 1 1 1 1 1 1 1 1 1 1 1 1 1 1 1 1 1 1 1 1 1 1 1 1 1 1 1 1 1 1 1 1 1 1 1 1 1 1 1 1 1 1 1 1 1 1 1 1 1 1 1 1 1 1 1 1 1 1 1 1 1 1 1 1 1 1 1 1 1 1 1 1 1 1 1 1 1 1 1 1 1 1 1 1 1 1 1 1 1 1 1 1 1 1 1 1 1 1 1 1 1 1 1 1 1 1 1 1 1 1 1 1 1 1 1 1 1 1 1 1 1 1 1 1 1 1 1 1 1 1 1 1 1 1 1 1 1 1 1 1 1 1 1 1 1 1 1 1 1 1 1 1 1 1 1 1 1 1 1 1 1 1 1 1 1 1 1 1 1 1 1 1 1 1 1 1 1 1 1 1 1 1 1 1 1 1 1 1 1 1 1 1 1 1 1 1 1 1 1 1 1 1 1 1 1 1 1 1 1 1 1 1 1 1 1 1 1 1 1 1 1 1 1 1 1 1 1 1 1 1 1 1 1 1 1 1 1 1 1 1 1 1 1 1 1 1 1 1 1 1 1 1 1 1 1 1 1 1 1 1 1 1 1 1 1 1 1 1 1 1 1 1 1 1 1 1 1 1 1 1 1 1 1 1 1 1 1 1 1 1 1 1 1 1 1 1 1 1 1 1 1 1 1 1 1 1 1 1 1 1 1 1 1 1 1 1 1 1 1 1 1 1 1 1 1 1 1 1 1 1 1 1 1 1 1 1 1 1 1 1 1 1 1 1 1 1 1 1 1 1 1 1 1 1 1 1 1 1 1 1 1 1 1 1 1 1 1 1 1 1 1 1 1 1 1 1 1 1 1 1 1 1 1 1 1 1 1 1 1 1 1 1 1 1 1 1 1 1 1 1 1 1 1 1 1 1 1 1 1 1 1 1 1 1 1 1 1 1 1 1 1 1 1 1 1 1 1 1 1 1 1 1 1 1 1 1 1 1 1 1 1 1 1 1 1 1 1 1 1 1 1 1 1 1 1 1 1 1 1 1 1 1 1 1 1 1 1 1 1 1 1 1 1 1 1 1 1 1 1 1 1 1 1 1 1 1 1 1 1 1 1 1 1 1 1 1 1 1 1 1 1 1 1 1 1 1 1 1 1 1 1 1 1 1 1 1 1 1 1 1 1 1 1 1 1 1 1 1 1 1 1 1 1 1 1 1 1 1 1 1 1 1 1 1 1 1 1 1 1 1 1 1 1 1 1 1 1 1 1 1 1 1 1 1 1 1 1 1 1 1 1 1 1 1 1 1 1 1 1 1 1 1 1 1 1 1 1 1 1 1 1 1 1 1 1 1 1 1 1 1 1 1 1 1 1 1 1 1 1 1 1 1 1 1 1 1 1 1 1 1 1 1 1 1 1 1 1 1 1 1 1 1 1 1 1 1 1 1 1 1 1 1 1 1 1 1 1 1 1 1 1 1 1 1 1 1 1 1 1 1 1 1 1 1 1 1 1 1 1 1 1 1 1 1 1 1 1 1 1 1 1 1 1 1 1 1 1 1 1 1 1 1 1 1 1 1 1 1 1 1 1 1 1 1 1 1 1 1 1 1 1 1 1 1 1 1 1 1 1 1 1 1 1 1 1 1 1 1 1 1 1 1 1 1 1 1 1 1 1 1 1 1 1 1 1 1 1 1 1 1 1 1 1 1 1 1 1 1 1 1 1 1 1 1 1 1 1 1 1 1 1 1 1 1 1 1 1 1 1 1 1 1 1 1 1 1 1 1 1 1 1 1 1 1 1 1 1 1 1 1 1 1 1 1 1 1 1 1 1 1 1 1 1 1 1 1 1 1 1 1 1 1 1 1 1 1 1 1 1 1 1 1 1 1 1 1 1 1 
</DataArray>
</CellData>
<Points>
<DataArray NumberOfComponents="3" format="ascii" type="Float64">
0.5625 0.53125 0 0.5625 0.515625 0 0.578125 0.515625 0 0.578125 0.53125 0 0.59375 0.53125 0 0.59375 0.515625 0 0.59375 0.5 0 0.578125 0.5 0 0.5625 0.5 0 0.875 0.5 0 0.875 0.515625 0 0.859375 0.515625 0 0.859375 0.5 0 0.8125 0.78125 0 0.8125 0.765625 0 0.828125 0.765625 0 0.828125 0.78125 0 0.875 0.53125 0 0.890625 0.515625 0 0.890625 0.53125 0 0.609375 0.5 0 0.609375 0.515625 0 0.609375 0.53125 0 0.625 0.53125 0 0.625 0.515625 0 0.625 0.5 0 0.84375 1 0 0.828125 1 0 0.828125 0.984375 0 0.84375 0.984375 0 0.8125 0.96875 0 0.828125 0.96875 0 0.8125 0.984375 0 0.8125 1 0 0.625 0.546875 0 0.609375 0.546875 0 0.59375 0.546875 0 0.59375 0.5625 0 0.609375 0.5625 0 0.625 0.5625 0 0.78125 0.8125 0 0.796875 0.8125 0 0.796875 0.828125 0 0.78125 0.828125 0 0.8125 0.84375 0 0.796875 0.84375 0 0.8125 0.828125 0 0.84375 0.875 0 0.828125 0.875 0 0.828125 0.859375 0 0.84375 0.859375 0 0.828125 0.84375 0 0.8125 0.859375 0 0.84375 0.84375 0 0.828125 0.828125 0 0.84375 0.828125 0 0.6875 0.9375 0 0.671875 0.9375 0 0.671875 0.921875 0 0.6875 0.921875 0 0.84375 0.8125 0 0.828125 0.8125 0 0.8125 0.8125 0 0.53125 0.6875 0 0.515625 0.6875 0 0.515625 0.671875 0 0.53125 0.671875 0 0.5 0.65625 0 0.515625 0.65625 0 0.5 0.671875 0 0.53125 0.625 0 0.546875 0.625 0 0.546875 0.640625 0 0.53125 0.640625 0 0.5625 0.65625 0 0.546875 0.65625 0 0.5625 0.640625 0 0.5625 0.625 0 0.53125 0.65625 0 0.515625 0.640625 0 0.5 0.625 0 0.515625 0.625 0 0.5 0.640625 0 0.8125 0.59375 0 0.8125 0.578125 0 0.828125 0.578125 0 0.828125 0.59375 0 0.5625 0.78125 0 0.5625 0.765625 0 0.578125 0.765625 0 0.578125 0.78125 0 0.84375 0.59375 0 0.84375 0.578125 0 0.59375 0.78125 0 0.59375 0.765625 0 0.8125 0.5625 0 0.828125 0.5625 0 0.5625 0.75 0 0.578125 0.75 0 0.53125 1 0 0.515625 1 0 0.515625 0.984375 0 0.53125 0.984375 0 0.765625 0.8125 0 0.765625 0.796875 0 0.78125 0.796875 0 0.5 0.96875 0 0.515625 0.96875 0 0.5 0.984375 0 0.75 0.78125 0 0.765625 0.78125 0 0.75 0.796875 0 0.515625 0.609375 0 0.53125 0.609375 0 0.53125 0.59375 0 0.515625 0.59375 0 0.5 0.59375 0 0.5 0.609375 0 0.84375 0.78125 0 0.84375 0.796875 0 0.828125 0.796875 0 0.65625 0.90625 0 0.671875 0.90625 0 0.65625 0.921875 0 0.8125 0.796875 0 0.859375 0.8125 0 0.859375 0.828125 0 0.875 0.84375 0 0.859375 0.84375 0 0.875 0.828125 0 0.90625 0.59375 0 0.921875 0.59375 0 0.921875 0.609375 0 0.90625 0.609375 0 0.65625 0.78125 0 0.671875 0.78125 0 0.671875 0.796875 0 0.65625 0.796875 0 0.9375 0.625 0 0.921875 0.625 0 0.9375 0.609375 0 0.6875 0.8125 0 0.671875 0.8125 0 0.6875 0.796875 0 0.875 0.96875 0 0.875 0.953125 0 0.890625 0.953125 0 0.890625 0.96875 0 0.90625 0.96875 0 0.90625 0.953125 0 0.90625 0.9375 0 0.890625 0.9375 0 0.875 0.9375 0 0.90625 0.84375 0 0.890625 0.84375 0 0.890625 0.828125 0 0.90625 0.828125 0 0.90625 0.8125 0 0.890625 0.8125 0 0.875 0.8125 0 0.921875 0.9375 0 0.921875 0.953125 0 0.921875 0.96875 0 0.9375 0.96875 0 0.9375 0.953125 0 0.9375 0.9375 0 0.921875 0.8125 0 0.921875 0.828125 0 0.921875 0.84375 0 0.9375 0.84375 0 0.9375 0.828125 0 0.9375 0.8125 0 0.890625 0.921875 0 0.90625 0.921875 0 0.90625 0.90625 0 0.890625 0.90625 0 0.875 0.90625 0 0.875 0.921875 0 0.90625 0.53125 0 0.90625 0.546875 0 0.890625 0.546875 0 0.6875 0.53125 0 0.6875 0.515625 0 0.703125 0.515625 0 0.703125 0.53125 0 0.71875 0.53125 0 0.71875 0.515625 0 0.71875 0.5 0 0.703125 0.5 0 0.6875 0.5 0 0.9375 0.984375 0 0.921875 0.984375 0 0.90625 0.984375 0 0.90625 1 0 0.921875 1 0 0.9375 1 0 0.90625 0.875 0 0.890625 0.875 0 0.890625 0.859375 0 0.90625 0.859375 0 0.875 0.859375 0 0.859375 0.859375 0 0.875 0.875 0 0.859375 0.875 0 0.65625 0.84375 0 0.65625 0.828125 0 0.671875 0.828125 0 0.671875 0.84375 0 0.96875 0.9375 0 0.984375 0.9375 0 0.984375 0.953125 0 0.96875 0.953125 0 0.96875 0.96875 0 0.984375 0.96875 0 1 0.96875 0 1 0.953125 0 1 0.9375 0 0.53125 0.75 0 0.546875 0.75 0 0.546875 0.765625 0 0.53125 0.765625 0 0.78125 0.5625 0 0.796875 0.5625 0 0.796875 0.578125 0 0.78125 0.578125 0 0.53125 0.78125 0 0.546875 0.78125 0 0.78125 0.59375 0 0.796875 0.59375 0 0.796875 0.796875 0 0.796875 0.78125 0 0.640625 0.90625 0 0.640625 0.890625 0 0.65625 0.890625 0 0.953125 0.953125 0 0.953125 0.96875 0 0.953125 0.9375 0 0.5 0.78125 0 0.5 0.765625 0 0.515625 0.765625 0 0.515625 0.78125 0 0.75 0.59375 0 0.75 0.578125 0 0.765625 0.578125 0 0.765625 0.59375 0 0.515625 0.75 0 0.765625 0.5625 0 0.75 0.5625 0 0.78125 0.78125 0 0.625 0.90625 0 0.609375 0.90625 0 0.609375 0.890625 0 0.625 0.890625 0 0.9375 0.859375 0 0.921875 0.859375 0 0.9375 0.875 0 0.921875 0.875 0 0.96875 1 0 0.953125 1 0 0.953125 0.984375 0 0.96875 0.984375 0 0.734375 0.5 0 0.734375 0.515625 0 0.734375 0.53125 0 0.75 0.53125 0 0.75 0.515625 0 0.75 0.5 0 0.53125 0.796875 0 0.515625 0.796875 0 0.78125 0.609375 0 0.765625 0.609375 0 0.5 0.8125 0 0.5 0.796875 0 0.515625 0.8125 0 0.75 0.625 0 0.75 0.609375 0 0.765625 0.625 0 0.75 0.8125 0 0.59375 0.90625 0 0.609375 0.921875 0 0.59375 0.921875 0 0.625 0.875 0 0.640625 0.875 0 0.78125 0.765625 0 0.796875 0.765625 0 0.8125 0.75 0 0.796875 0.75 0 0.78125 0.625 0 0.625 0.71875 0 0.625 0.734375 0 0.609375 0.734375 0 0.609375 0.71875 0 0.84375 0.53125 0 0.859375 0.53125 0 0.859375 0.546875 0 0.84375 0.546875 0 0.59375 0.71875 0 0.59375 0.734375 0 0.875 0.5625 0 0.859375 0.5625 0 0.875 0.546875 0 0.625 0.75 0 0.609375 0.75 0 0.59375 0.875 0 0.609375 0.875 0 0.59375 0.890625 0 0.75 0.765625 0 0.765625 0.765625 0 0.5625 0.59375 0 0.5625 0.609375 0 0.546875 0.609375 0 0.546875 0.59375 0 0.84375 0.5625 0 0.828125 0.546875 0 0.59375 0.75 0 0.578125 0.734375 0 0.8125 0.53125 0 0.828125 0.53125 0 0.8125 0.546875 0 0.5625 0.71875 0 0.578125 0.71875 0 0.5625 0.734375 0 1 0.90625 0 1 0.921875 0 0.984375 0.921875 0 0.984375 0.90625 0 0.96875 0.90625 0 0.96875 0.921875 0 0.71875 0.9375 0 0.703125 0.9375 0 0.703125 0.921875 0 0.71875 0.921875 0 0.859375 0.796875 0 0.6875 0.90625 0 0.703125 0.90625 0 0.953125 0.921875 0 0.953125 0.90625 0 0.9375 0.90625 0 0.9375 0.921875 0 1 0.84375 0 1 0.859375 0 0.984375 0.859375 0 0.984375 0.84375 0 0.96875 0.875 0 0.96875 0.859375 0 0.984375 0.875 0 0.84375 0.96875 0 1 0.875 0 0.84375 0.5 0 0.84375 0.515625 0 0.59375 0.6875 0 0.609375 0.6875 0 0.609375 0.703125 0 0.59375 0.703125 0 0.625 0.703125 0 0.625 0.6875 0 0.65625 0.8125 0 0.640625 0.828125 0 0.640625 0.8125 0 1 0.984375 0 0.984375 0.984375 0 0.984375 1 0 1 1 0 0.71875 0.8125 0 0.734375 0.8125 0 0.734375 0.828125 0 0.71875 0.828125 0 0.96875 0.625 0 0.984375 0.625 0 0.984375 0.640625 0 0.96875 0.640625 0 0.75 0.84375 0 0.734375 0.84375 0 0.75 0.828125 0 1 0.65625 0 0.984375 0.65625 0 1 0.640625 0 0.5625 0.796875 0 0.546875 0.796875 0 0.8125 0.609375 0 0.796875 0.609375 0 0.9375 0.5 0 0.953125 0.5 0 0.953125 0.515625 0 0.9375 0.515625 0 0.53125 0.8125 0 0.546875 0.8125 0 0.796875 0.625 0 0.65625 0.9375 0 0.640625 0.9375 0 0.640625 0.921875 0 0.625 0.921875 0 0.9375 0.890625 0 0.953125 0.890625 0 0.96875 0.890625 0 0.953125 0.875 0 0.78125 0.75 0 0.765625 0.75 0 0.609375 0.859375 0 0.625 0.859375 0 0.9375 0.6875 0 0.9375 0.671875 0 0.953125 0.671875 0 0.953125 0.6875 0 0.6875 0.875 0 0.6875 0.859375 0 0.703125 0.859375 0 0.703125 0.875 0 0.875 0.890625 0 0.890625 0.890625 0 0.90625 0.890625 0 0.6875 0.84375 0 0.671875 0.859375 0 0.75 0.546875 0 0.734375 0.546875 0 0.71875 0.546875 0 0.71875 0.5625 0 0.734375 0.5625 0 0.875 0.75 0 0.890625 0.75 0 0.890625 0.765625 0 0.875 0.765625 0 0.71875 0.875 0 0.71875 0.859375 0 0.734375 0.859375 0 0.734375 0.875 0 0.921875 0.890625 0 0.921875 0.90625 0 0.96875 0.71875 0 0.96875 0.703125 0 0.984375 0.703125 0 0.984375 0.71875 0 0.71875 0.90625 0 0.71875 0.890625 0 0.734375 0.890625 0 0.734375 0.90625 0 1 0.71875 0 1 0.703125 0 0.75 0.90625 0 0.75 0.890625 0 0.90625 0.78125 0 0.890625 0.78125 0 0.90625 0.765625 0 0.75 0.875 0 0.921875 0.921875 0 0.578125 0.5625 0 0.578125 0.546875 0 0.5625 0.546875 0 0.5625 0.5625 0 0.65625 0.75 0 0.671875 0.75 0 0.671875 0.765625 0 0.65625 0.765625 0 0.90625 0.5625 0 0.921875 0.5625 0 0.921875 0.578125 0 0.90625 0.578125 0 0.6875 0.78125 0 0.6875 0.765625 0 0.9375 0.59375 0 0.9375 0.578125 0 0.9375 0.71875 0 0.9375 0.703125 0 0.953125 0.703125 0 0.953125 0.71875 0 0.6875 0.890625 0 0.703125 0.890625 0 0.96875 0.6875 0 0.640625 0.78125 0 0.640625 0.765625 0 0.890625 0.59375 0 0.890625 0.578125 0 0.640625 0.75 0 0.625 0.765625 0 0.890625 0.5625 0 0.875 0.578125 0 0.703125 0.546875 0 0.6875 0.546875 0 0.6875 0.5625 0 0.703125 0.5625 0 0.625 0.8125 0 0.625 0.796875 0 0.640625 0.796875 0 0.96875 0.84375 0 0.96875 0.828125 0 0.984375 0.828125 0 1 0.8125 0 1 0.828125 0 0.984375 0.8125 0 0.625 0.65625 0 0.625 0.671875 0 0.609375 0.671875 0 0.609375 0.65625 0 0.59375 0.65625 0 0.59375 0.671875 0 0.6875 0.59375 0 0.6875 0.609375 0 0.671875 0.609375 0 0.671875 0.59375 0 0.625 0.59375 0 0.640625 0.59375 0 0.640625 0.609375 0 0.625 0.609375 0 0.65625 0.5 0 0.65625 0.515625 0 0.640625 0.515625 0 0.640625 0.5 0 0.875 0.984375 0 0.859375 0.984375 0 0.859375 0.96875 0 0.59375 0.625 0 0.59375 0.640625 0 0.578125 0.640625 0 0.578125 0.625 0 0.640625 0.53125 0 0.671875 0.53125 0 0.671875 0.515625 0 0.953125 0.859375 0 0.859375 1 0 0.578125 0.65625 0 0.890625 1 0 0.890625 0.984375 0 0.65625 0.53125 0 0.546875 0.53125 0 0.546875 0.515625 0 0.875 1 0 0.78125 1 0 0.765625 1 0 0.765625 0.984375 0 0.78125 0.984375 0 0.65625 0.546875 0 0.640625 0.546875 0 0.984375 0.890625 0 0.859375 0.890625 0 0.84375 0.890625 0 0.53125 0.53125 0 0.53125 0.546875 0 0.515625 0.546875 0 0.515625 0.53125 0 0.84375 0.90625 0 0.859375 0.90625 0 0.921875 0.78125 0 0.921875 0.796875 0 0.90625 0.796875 0 0.765625 0.890625 0 0.765625 0.90625 0 0.8125 0.90625 0 0.796875 0.90625 0 0.796875 0.890625 0 0.8125 0.890625 0 0.53125 0.5625 0 0.546875 0.546875 0 0.546875 0.5625 0 0.8125 0.875 0 0.828125 0.890625 0 0.9375 0.78125 0 0.921875 0.765625 0 0.9375 0.765625 0 0.78125 0.875 0 0.78125 0.890625 0 0.765625 0.875 0 0.859375 0.921875 0 0.59375 0.578125 0 0.578125 0.578125 0 0.546875 0.578125 0 0.53125 0.578125 0 0.84375 0.921875 0 0.515625 0.578125 0 0.515625 0.5625 0 0.84375 0.9375 0 0.859375 0.9375 0 0.5625 0.578125 0 0.578125 0.59375 0 0.96875 0.8125 0 0.8125 0.9375 0 0.8125 0.921875 0 0.828125 0.921875 0 0.828125 0.9375 0 0.5 0.578125 0 0.5 0.5625 0 0.828125 0.90625 0 0.9375 0.796875 0 0.78125 0.90625 0 0.78125 0.921875 0 0.765625 0.921875 0 0.5 0.546875 0 0.796875 0.875 0 1 0.53125 0 1 0.546875 0 0.984375 0.546875 0 0.984375 0.53125 0 0.59375 0.84375 0 0.578125 0.84375 0 0.578125 0.828125 0 0.59375 0.828125 0 0.75 0.71875 0 0.75 0.734375 0 0.734375 0.734375 0 0.734375 0.71875 0 0.9375 0.53125 0 0.953125 0.53125 0 0.953125 0.546875 0 0.9375 0.546875 0 0.6875 0.71875 0 0.703125 0.71875 0 0.703125 0.734375 0 0.6875 0.734375 0 0.8125 0.625 0 0.65625 0.71875 0 0.65625 0.734375 0 0.640625 0.734375 0 0.640625 0.71875 0 0.96875 0.5625 0 0.96875 0.546875 0 0.984375 0.5625 0 0.5625 0.84375 0 0.578125 0.859375 0 0.5625 0.859375 0 0.71875 0.75 0 0.71875 0.734375 0 0.734375 0.75 0 0.9375 0.5625 0 0.921875 0.546875 0 0.6875 0.75 0 0.671875 0.734375 0 0.953125 0.5625 0 0.703125 0.75 0 0.609375 0.84375 0 0.59375 0.859375 0 0.75 0.75 0 0.765625 0.734375 0 0.96875 0.53125 0 0.546875 0.84375 0 0.546875 0.828125 0 0.5625 0.828125 0 0.71875 0.71875 0 0.921875 0.53125 0 0.671875 0.71875 0 0.53125 0.84375 0 0.546875 0.859375 0 0.53125 0.859375 0 0.53125 0.828125 0 0.6875 0.703125 0 0.703125 0.703125 0 0.90625 0.515625 0 0.640625 0.703125 0 0.65625 0.703125 0 0.96875 0.5 0 0.96875 0.515625 0 0.5625 0.8125 0 0.71875 0.6875 0 0.71875 0.703125 0 0.703125 0.6875 0 0.90625 0.5 0 0.921875 0.5 0 0.921875 0.515625 0 0.65625 0.6875 0 0.671875 0.6875 0 0.671875 0.703125 0 0.984375 0.515625 0 0.578125 0.8125 0 0.734375 0.703125 0 1 0.5 0 1 0.515625 0 0.984375 0.5 0 0.75 0.6875 0 0.75 0.703125 0 0.734375 0.6875 0 0.890625 0.5 0 0.640625 0.6875 0 0.6875 0.6875 0 0.71875 0.59375 0 0.734375 0.59375 0 0.734375 0.609375 0 0.71875 0.609375 0 0.5625 0.703125 0 0.578125 0.703125 0 0.625 0.640625 0 0.640625 0.640625 0 0.640625 0.65625 0 0.65625 0.671875 0 0.671875 0.671875 0 0.65625 0.65625 0 0.640625 0.671875 0 0.5625 0.671875 0 0.546875 0.671875 0 0.578125 0.6875 0 0.578125 0.671875 0 0.75 0.640625 0 0.734375 0.640625 0 0.734375 0.625 0 0.6875 0.625 0 0.703125 0.625 0 0.703125 0.640625 0 0.6875 0.640625 0 0.796875 0.640625 0 0.78125 0.640625 0 0.71875 0.65625 0 0.71875 0.640625 0 0.734375 0.65625 0 0.6875 0.65625 0 0.671875 0.65625 0 0.671875 0.640625 0 0.609375 0.765625 0 0.78125 0.65625 0 0.765625 0.65625 0 0.765625 0.640625 0 0.96875 0.65625 0 0.984375 0.671875 0 0.96875 0.671875 0 0.71875 0.84375 0 0.5625 0.96875 0 0.5625 0.953125 0 0.578125 0.953125 0 0.578125 0.96875 0 0.65625 0.96875 0 0.65625 0.953125 0 0.671875 0.953125 0 0.671875 0.96875 0 0.875 0.78125 0 0.859375 0.78125 0 0.859375 0.765625 0 0.625 0.96875 0 0.609375 0.96875 0 0.609375 0.953125 0 0.625 0.953125 0 0.75 0.65625 0 0.703125 0.65625 0 1 0.671875 0 0.84375 0.765625 0 0.59375 0.96875 0 0.59375 0.953125 0 0.640625 0.953125 0 0.640625 0.96875 0 0.9375 0.65625 0 0.953125 0.65625 0 0.703125 0.84375 0 0.53125 0.96875 0 0.53125 0.953125 0 0.546875 0.953125 0 0.546875 0.96875 0 0.734375 0.671875 0 0.75 0.671875 0 0.84375 0.6875 0 0.828125 0.6875 0 0.828125 0.671875 0 0.84375 0.671875 0 0.53125 0.875 0 0.546875 0.875 0 0.78125 0.6875 0 0.78125 0.671875 0 0.796875 0.671875 0 0.796875 0.6875 0 0.8125 0.65625 0 0.796875 0.65625 0 0.8125 0.640625 0 0.75 0.96875 0 0.75 0.953125 0 0.765625 0.953125 0 0.765625 0.96875 0 0.796875 0.96875 0 0.796875 0.953125 0 0.8125 0.953125 0 0.71875 0.96875 0 0.703125 0.96875 0 0.703125 0.953125 0 0.71875 0.953125 0 0.78125 0.9375 0 0.78125 0.953125 0 0.765625 0.9375 0 0.828125 0.953125 0 0.734375 0.9375 0 0.734375 0.953125 0 0.78125 0.96875 0 0.84375 0.953125 0 0.734375 0.96875 0 0.65625 0.59375 0 0.65625 0.609375 0 0.703125 0.609375 0 0.703125 0.59375 0 0.859375 0.953125 0 0.796875 0.984375 0 0.75 0.984375 0 0.796875 1 0 0.75 1 0 0.734375 1 0 0.734375 0.984375 0 0.796875 0.9375 0 0.796875 0.921875 0 0.75 0.9375 0 0.75 0.921875 0 0.875 0.59375 0 0.8125 0.6875 0 0.828125 0.703125 0 0.8125 0.703125 0 0.6875 0.96875 0 0.6875 0.984375 0 0.671875 0.984375 0 1 0.6875 0 0.984375 0.6875 0 0.75 0.859375 0 0.59375 0.984375 0 0.578125 0.984375 0 0.890625 0.796875 0 0.875 0.796875 0 0.640625 0.984375 0 0.625 0.984375 0 0.875 0.609375 0 0.859375 0.609375 0 0.859375 0.59375 0 0.65625 1 0 0.65625 0.984375 0 0.671875 1 0 0.5625 1 0 0.5625 0.984375 0 0.578125 1 0 0.625 1 0 0.609375 1 0 0.609375 0.984375 0 0.6875 0.953125 0 1 0.5625 0 0.84375 0.65625 0 0.828125 0.65625 0 0.625 0.84375 0 0.640625 0.84375 0 0.640625 0.859375 0 0.875 0.65625 0 0.890625 0.65625 0 0.890625 0.671875 0 0.875 0.671875 0 0.59375 1 0 0.546875 0.984375 0 0.546875 1 0 0.640625 1 0 0.59375 0.8125 0 0.84375 0.625 0 0.84375 0.640625 0 0.828125 0.640625 0 0.828125 0.625 0 0.625 0.828125 0 0.875 0.625 0 0.890625 0.625 0 0.890625 0.640625 0 0.875 0.640625 0 0.8125 0.671875 0 0.65625 0.5625 0 0.640625 0.5625 0 0.71875 0.671875 0 0.9375 0.75 0 0.921875 0.75 0 0.78125 0.84375 0 0.625 0.9375 0 0.875 0.71875 0 0.875 0.734375 0 0.859375 0.734375 0 0.859375 0.71875 0 0.890625 0.71875 0 0.890625 0.734375 0 0.8125 0.5 0 0.828125 0.5 0 0.828125 0.515625 0 0.8125 0.515625 0 0.5625 0.6875 0 0.625 0.78125 0 0.703125 0.671875 0 0.6875 0.671875 0 0.5 0.75 0 0.65625 0.640625 0 0.609375 0.640625 0 0.6875 0.828125 0 0.703125 0.828125 0 0.84375 0.71875 0 0.84375 0.734375 0 0.765625 0.5 0 0.765625 0.515625 0 0.5 0.6875 0 0.515625 0.703125 0 0.5 0.703125 0 0.765625 0.53125 0 0.5 0.71875 0 0.515625 0.71875 0 0.78125 0.53125 0 0.78125 0.515625 0 0.53125 0.71875 0 0.53125 0.703125 0 0.78125 0.734375 0 0.796875 0.734375 0 0.859375 0.75 0 0.5625 0.